V -t * -v 1.0a5 -a 0
A -t * -n 1 -p 0 -o 0x7fffffff -c 30 -a 1
A -t * -h 1 -m 1073741823 -s 0
c -t * -i 1 -n Green
c -t * -i 2 -n Orange
n -t * -a 0 -s 0 -S UP -v circle -c purple -i purple
n -t * -a 1 -s 1 -S UP -v circle -c purple -i purple
n -t * -a 2 -s 2 -S UP -v circle -c purple -i purple
n -t * -a 3 -s 3 -S UP -v circle -c purple -i purple
n -t * -a 4 -s 4 -S UP -v circle -c purple -i purple
n -t * -a 5 -s 5 -S UP -v circle -c purple -i purple
n -t * -a 6 -s 6 -S UP -v circle -c purple -i purple
n -t * -a 7 -s 7 -S UP -v circle -c purple -i purple
n -t * -a 8 -s 8 -S UP -v circle -c purple -i purple
n -t * -a 9 -s 9 -S UP -v circle -c purple -i purple
n -t * -a 10 -s 10 -S UP -v circle -c purple -i purple
n -t * -a 11 -s 11 -S UP -v circle -c purple -i purple
l -t * -s 0 -d 1 -S UP -r 2000000 -D 0.01 -c black
l -t * -s 1 -d 2 -S UP -r 2000000 -D 0.01 -c black
l -t * -s 2 -d 3 -S UP -r 2000000 -D 0.01 -c black
l -t * -s 3 -d 0 -S UP -r 2000000 -D 0.01 -c black
l -t * -s 4 -d 6 -S UP -r 2000000 -D 0.01 -c black
l -t * -s 6 -d 7 -S UP -r 2000000 -D 0.01 -c black
l -t * -s 7 -d 8 -S UP -r 2000000 -D 0.01 -c black
l -t * -s 8 -d 4 -S UP -r 2000000 -D 0.01 -c black
l -t * -s 5 -d 9 -S UP -r 2000000 -D 0.01 -c black
l -t * -s 9 -d 10 -S UP -r 2000000 -D 0.01 -c black
l -t * -s 10 -d 11 -S UP -r 2000000 -D 0.01 -c black
l -t * -s 11 -d 5 -S UP -r 2000000 -D 0.01 -c black
l -t * -s 0 -d 2 -S UP -r 2000000 -D 0.01 -c black
l -t * -s 1 -d 3 -S UP -r 2000000 -D 0.01 -c black
l -t * -s 4 -d 7 -S UP -r 2000000 -D 0.01 -c black
l -t * -s 6 -d 8 -S UP -r 2000000 -D 0.01 -c black
l -t * -s 5 -d 10 -S UP -r 2000000 -D 0.01 -c black
l -t * -s 9 -d 11 -S UP -r 2000000 -D 0.01 -c black
X -t * -n 12 -r 0.5Mb -D 40ms -o left
L -t * -s 12 -d 3 -o up
L -t * -s 12 -d 4 -o down
L -t * -s 12 -d 5 -o up
+ -t 4 -s 0 -d 3 -p tcp -e 40 -c 1 -i 0 -a 1 -x {0.0 4.0 0 ------- null}
- -t 4 -s 0 -d 3 -p tcp -e 40 -c 1 -i 0 -a 1 -x {0.0 4.0 0 ------- null}
h -t 4 -s 0 -d 3 -p tcp -e 40 -c 1 -i 0 -a 1 -x {0.0 4.0 -1 ------- null}
+ -t 4 -s 1 -d 3 -p cbr -e 500 -c 2 -i 1 -a 2 -x {1.0 5.0 0 ------- null}
- -t 4 -s 1 -d 3 -p cbr -e 500 -c 2 -i 1 -a 2 -x {1.0 5.0 0 ------- null}
h -t 4 -s 1 -d 3 -p cbr -e 500 -c 2 -i 1 -a 2 -x {1.0 5.0 -1 ------- null}
+ -t 4.00892857142857 -s 1 -d 3 -p cbr -e 500 -c 2 -i 2 -a 2 -x {1.0 5.0 1 ------- null}
- -t 4.00892857142857 -s 1 -d 3 -p cbr -e 500 -c 2 -i 2 -a 2 -x {1.0 5.0 1 ------- null}
h -t 4.00892857142857 -s 1 -d 3 -p cbr -e 500 -c 2 -i 2 -a 2 -x {1.0 5.0 -1 ------- null}
r -t 4.01016 -s 0 -d 3 -p tcp -e 40 -c 1 -i 0 -a 1 -x {0.0 4.0 0 ------- null}
h -t 4.01016 -s 3 -d 12 -p tcp -e 40 -c 1 -i 0 -a 1 -x {0.0 4.0 0 ------- null}
r -t 4.012 -s 1 -d 3 -p cbr -e 500 -c 2 -i 1 -a 2 -x {1.0 5.0 0 ------- null}
h -t 4.012 -s 3 -d 12 -p cbr -e 500 -c 2 -i 1 -a 2 -x {1.0 5.0 0 ------- null}
+ -t 4.01785714285714 -s 1 -d 3 -p cbr -e 500 -c 2 -i 3 -a 2 -x {1.0 5.0 2 ------- null}
- -t 4.01785714285714 -s 1 -d 3 -p cbr -e 500 -c 2 -i 3 -a 2 -x {1.0 5.0 2 ------- null}
h -t 4.01785714285714 -s 1 -d 3 -p cbr -e 500 -c 2 -i 3 -a 2 -x {1.0 5.0 -1 ------- null}
r -t 4.02092857142857 -s 1 -d 3 -p cbr -e 500 -c 2 -i 2 -a 2 -x {1.0 5.0 1 ------- null}
h -t 4.02092857142857 -s 3 -d 12 -p cbr -e 500 -c 2 -i 2 -a 2 -x {1.0 5.0 1 ------- null}
+ -t 4.02678571428571 -s 1 -d 3 -p cbr -e 500 -c 2 -i 4 -a 2 -x {1.0 5.0 3 ------- null}
- -t 4.02678571428571 -s 1 -d 3 -p cbr -e 500 -c 2 -i 4 -a 2 -x {1.0 5.0 3 ------- null}
h -t 4.02678571428571 -s 1 -d 3 -p cbr -e 500 -c 2 -i 4 -a 2 -x {1.0 5.0 -1 ------- null}
r -t 4.02985714285714 -s 1 -d 3 -p cbr -e 500 -c 2 -i 3 -a 2 -x {1.0 5.0 2 ------- null}
h -t 4.02985714285714 -s 3 -d 12 -p cbr -e 500 -c 2 -i 3 -a 2 -x {1.0 5.0 2 ------- null}
+ -t 4.03571428571428 -s 1 -d 3 -p cbr -e 500 -c 2 -i 5 -a 2 -x {1.0 5.0 4 ------- null}
- -t 4.03571428571428 -s 1 -d 3 -p cbr -e 500 -c 2 -i 5 -a 2 -x {1.0 5.0 4 ------- null}
h -t 4.03571428571428 -s 1 -d 3 -p cbr -e 500 -c 2 -i 5 -a 2 -x {1.0 5.0 -1 ------- null}
r -t 4.03878571428571 -s 1 -d 3 -p cbr -e 500 -c 2 -i 4 -a 2 -x {1.0 5.0 3 ------- null}
h -t 4.03878571428571 -s 3 -d 12 -p cbr -e 500 -c 2 -i 4 -a 2 -x {1.0 5.0 3 ------- null}
+ -t 4.04464285714286 -s 1 -d 3 -p cbr -e 500 -c 2 -i 6 -a 2 -x {1.0 5.0 5 ------- null}
- -t 4.04464285714286 -s 1 -d 3 -p cbr -e 500 -c 2 -i 6 -a 2 -x {1.0 5.0 5 ------- null}
h -t 4.04464285714286 -s 1 -d 3 -p cbr -e 500 -c 2 -i 6 -a 2 -x {1.0 5.0 -1 ------- null}
r -t 4.04771428571428 -s 1 -d 3 -p cbr -e 500 -c 2 -i 5 -a 2 -x {1.0 5.0 4 ------- null}
h -t 4.04771428571428 -s 3 -d 12 -p cbr -e 500 -c 2 -i 5 -a 2 -x {1.0 5.0 4 ------- null}
+ -t 4.05016 -s 3 -d 12 -p tcp -e 40 -c 1 -i 0 -a 1 -x {0.0 4.0 0 ------- null}
- -t 4.05016 -s 3 -d 12 -p tcp -e 40 -c 1 -i 0 -a 1 -x {0.0 4.0 0 ------- null}
h -t 4.05016 -s 3 -d 12 -p tcp -e 40 -c 1 -i 0 -a 1 -x {0.0 4.0 -1 ------- null}
d -t 4.050164 -s 5 -d 12 -p tcp -e 40 -c 1 -i 0 -a 1 -x {0.0 4.0 0 ------- null}
+ -t 4.052 -s 3 -d 12 -p cbr -e 500 -c 2 -i 1 -a 2 -x {1.0 5.0 0 ------- null}
- -t 4.052 -s 3 -d 12 -p cbr -e 500 -c 2 -i 1 -a 2 -x {1.0 5.0 0 ------- null}
h -t 4.052 -s 3 -d 12 -p cbr -e 500 -c 2 -i 1 -a 2 -x {1.0 5.0 -1 ------- null}
d -t 4.052004 -s 4 -d 12 -p cbr -e 500 -c 2 -i 1 -a 2 -x {1.0 5.0 0 ------- null}
+ -t 4.05357142857143 -s 1 -d 3 -p cbr -e 500 -c 2 -i 7 -a 2 -x {1.0 5.0 6 ------- null}
- -t 4.05357142857143 -s 1 -d 3 -p cbr -e 500 -c 2 -i 7 -a 2 -x {1.0 5.0 6 ------- null}
h -t 4.05357142857143 -s 1 -d 3 -p cbr -e 500 -c 2 -i 7 -a 2 -x {1.0 5.0 -1 ------- null}
r -t 4.05664285714286 -s 1 -d 3 -p cbr -e 500 -c 2 -i 6 -a 2 -x {1.0 5.0 5 ------- null}
h -t 4.05664285714286 -s 3 -d 12 -p cbr -e 500 -c 2 -i 6 -a 2 -x {1.0 5.0 5 ------- null}
+ -t 4.06092857142857 -s 3 -d 12 -p cbr -e 500 -c 2 -i 2 -a 2 -x {1.0 5.0 1 ------- null}
- -t 4.06092857142857 -s 3 -d 12 -p cbr -e 500 -c 2 -i 2 -a 2 -x {1.0 5.0 1 ------- null}
h -t 4.06092857142857 -s 3 -d 12 -p cbr -e 500 -c 2 -i 2 -a 2 -x {1.0 5.0 -1 ------- null}
d -t 4.06093257142857 -s 4 -d 12 -p cbr -e 500 -c 2 -i 2 -a 2 -x {1.0 5.0 1 ------- null}
+ -t 4.0625 -s 1 -d 3 -p cbr -e 500 -c 2 -i 8 -a 2 -x {1.0 5.0 7 ------- null}
- -t 4.0625 -s 1 -d 3 -p cbr -e 500 -c 2 -i 8 -a 2 -x {1.0 5.0 7 ------- null}
h -t 4.0625 -s 1 -d 3 -p cbr -e 500 -c 2 -i 8 -a 2 -x {1.0 5.0 -1 ------- null}
r -t 4.06557142857143 -s 1 -d 3 -p cbr -e 500 -c 2 -i 7 -a 2 -x {1.0 5.0 6 ------- null}
h -t 4.06557142857143 -s 3 -d 12 -p cbr -e 500 -c 2 -i 7 -a 2 -x {1.0 5.0 6 ------- null}
+ -t 4.06985714285714 -s 3 -d 12 -p cbr -e 500 -c 2 -i 3 -a 2 -x {1.0 5.0 2 ------- null}
- -t 4.06985714285714 -s 3 -d 12 -p cbr -e 500 -c 2 -i 3 -a 2 -x {1.0 5.0 2 ------- null}
h -t 4.06985714285714 -s 3 -d 12 -p cbr -e 500 -c 2 -i 3 -a 2 -x {1.0 5.0 -1 ------- null}
d -t 4.06986114285714 -s 4 -d 12 -p cbr -e 500 -c 2 -i 3 -a 2 -x {1.0 5.0 2 ------- null}
+ -t 4.07142857142857 -s 1 -d 3 -p cbr -e 500 -c 2 -i 9 -a 2 -x {1.0 5.0 8 ------- null}
- -t 4.07142857142857 -s 1 -d 3 -p cbr -e 500 -c 2 -i 9 -a 2 -x {1.0 5.0 8 ------- null}
h -t 4.07142857142857 -s 1 -d 3 -p cbr -e 500 -c 2 -i 9 -a 2 -x {1.0 5.0 -1 ------- null}
r -t 4.0745 -s 1 -d 3 -p cbr -e 500 -c 2 -i 8 -a 2 -x {1.0 5.0 7 ------- null}
h -t 4.0745 -s 3 -d 12 -p cbr -e 500 -c 2 -i 8 -a 2 -x {1.0 5.0 7 ------- null}
+ -t 4.07878571428571 -s 3 -d 12 -p cbr -e 500 -c 2 -i 4 -a 2 -x {1.0 5.0 3 ------- null}
- -t 4.07878571428571 -s 3 -d 12 -p cbr -e 500 -c 2 -i 4 -a 2 -x {1.0 5.0 3 ------- null}
h -t 4.07878571428571 -s 3 -d 12 -p cbr -e 500 -c 2 -i 4 -a 2 -x {1.0 5.0 -1 ------- null}
d -t 4.07878971428571 -s 4 -d 12 -p cbr -e 500 -c 2 -i 4 -a 2 -x {1.0 5.0 3 ------- null}
+ -t 4.08035714285714 -s 1 -d 3 -p cbr -e 500 -c 2 -i 10 -a 2 -x {1.0 5.0 9 ------- null}
- -t 4.08035714285714 -s 1 -d 3 -p cbr -e 500 -c 2 -i 10 -a 2 -x {1.0 5.0 9 ------- null}
h -t 4.08035714285714 -s 1 -d 3 -p cbr -e 500 -c 2 -i 10 -a 2 -x {1.0 5.0 -1 ------- null}
r -t 4.08342857142857 -s 1 -d 3 -p cbr -e 500 -c 2 -i 9 -a 2 -x {1.0 5.0 8 ------- null}
h -t 4.08342857142857 -s 3 -d 12 -p cbr -e 500 -c 2 -i 9 -a 2 -x {1.0 5.0 8 ------- null}
+ -t 4.08771428571428 -s 3 -d 12 -p cbr -e 500 -c 2 -i 5 -a 2 -x {1.0 5.0 4 ------- null}
- -t 4.08771428571428 -s 3 -d 12 -p cbr -e 500 -c 2 -i 5 -a 2 -x {1.0 5.0 4 ------- null}
h -t 4.08771428571428 -s 3 -d 12 -p cbr -e 500 -c 2 -i 5 -a 2 -x {1.0 5.0 -1 ------- null}
d -t 4.08771828571428 -s 4 -d 12 -p cbr -e 500 -c 2 -i 5 -a 2 -x {1.0 5.0 4 ------- null}
+ -t 4.08928571428571 -s 1 -d 3 -p cbr -e 500 -c 2 -i 11 -a 2 -x {1.0 5.0 10 ------- null}
- -t 4.08928571428571 -s 1 -d 3 -p cbr -e 500 -c 2 -i 11 -a 2 -x {1.0 5.0 10 ------- null}
h -t 4.08928571428571 -s 1 -d 3 -p cbr -e 500 -c 2 -i 11 -a 2 -x {1.0 5.0 -1 ------- null}
r -t 4.090164 -s 12 -d 4 -p tcp -e 40 -c 1 -i 0 -a 1 -x {0.0 4.0 0 ------- null}
h -t 4.090164 -s 4 -d 12 -p ack -e 40 -c 1 -i 12 -a 1 -x {4.0 0.0 0 ------- null}
r -t 4.092004 -s 12 -d 5 -p cbr -e 500 -c 2 -i 1 -a 2 -x {1.0 5.0 0 ------- null}
r -t 4.09235714285714 -s 1 -d 3 -p cbr -e 500 -c 2 -i 10 -a 2 -x {1.0 5.0 9 ------- null}
h -t 4.09235714285714 -s 3 -d 12 -p cbr -e 500 -c 2 -i 10 -a 2 -x {1.0 5.0 9 ------- null}
+ -t 4.09664285714286 -s 3 -d 12 -p cbr -e 500 -c 2 -i 6 -a 2 -x {1.0 5.0 5 ------- null}
- -t 4.09664285714286 -s 3 -d 12 -p cbr -e 500 -c 2 -i 6 -a 2 -x {1.0 5.0 5 ------- null}
h -t 4.09664285714286 -s 3 -d 12 -p cbr -e 500 -c 2 -i 6 -a 2 -x {1.0 5.0 -1 ------- null}
d -t 4.09664685714286 -s 4 -d 12 -p cbr -e 500 -c 2 -i 6 -a 2 -x {1.0 5.0 5 ------- null}
+ -t 4.09821428571428 -s 1 -d 3 -p cbr -e 500 -c 2 -i 13 -a 2 -x {1.0 5.0 11 ------- null}
- -t 4.09821428571428 -s 1 -d 3 -p cbr -e 500 -c 2 -i 13 -a 2 -x {1.0 5.0 11 ------- null}
h -t 4.09821428571428 -s 1 -d 3 -p cbr -e 500 -c 2 -i 13 -a 2 -x {1.0 5.0 -1 ------- null}
r -t 4.10093257142857 -s 12 -d 5 -p cbr -e 500 -c 2 -i 2 -a 2 -x {1.0 5.0 1 ------- null}
r -t 4.10128571428571 -s 1 -d 3 -p cbr -e 500 -c 2 -i 11 -a 2 -x {1.0 5.0 10 ------- null}
h -t 4.10128571428571 -s 3 -d 12 -p cbr -e 500 -c 2 -i 11 -a 2 -x {1.0 5.0 10 ------- null}
+ -t 4.10557142857143 -s 3 -d 12 -p cbr -e 500 -c 2 -i 7 -a 2 -x {1.0 5.0 6 ------- null}
- -t 4.10557142857143 -s 3 -d 12 -p cbr -e 500 -c 2 -i 7 -a 2 -x {1.0 5.0 6 ------- null}
h -t 4.10557142857143 -s 3 -d 12 -p cbr -e 500 -c 2 -i 7 -a 2 -x {1.0 5.0 -1 ------- null}
d -t 4.10557542857143 -s 4 -d 12 -p cbr -e 500 -c 2 -i 7 -a 2 -x {1.0 5.0 6 ------- null}
+ -t 4.10714285714285 -s 1 -d 3 -p cbr -e 500 -c 2 -i 14 -a 2 -x {1.0 5.0 12 ------- null}
- -t 4.10714285714285 -s 1 -d 3 -p cbr -e 500 -c 2 -i 14 -a 2 -x {1.0 5.0 12 ------- null}
h -t 4.10714285714285 -s 1 -d 3 -p cbr -e 500 -c 2 -i 14 -a 2 -x {1.0 5.0 -1 ------- null}
r -t 4.10986114285714 -s 12 -d 5 -p cbr -e 500 -c 2 -i 3 -a 2 -x {1.0 5.0 2 ------- null}
r -t 4.11021428571428 -s 1 -d 3 -p cbr -e 500 -c 2 -i 13 -a 2 -x {1.0 5.0 11 ------- null}
h -t 4.11021428571428 -s 3 -d 12 -p cbr -e 500 -c 2 -i 13 -a 2 -x {1.0 5.0 11 ------- null}
+ -t 4.1145 -s 3 -d 12 -p cbr -e 500 -c 2 -i 8 -a 2 -x {1.0 5.0 7 ------- null}
- -t 4.1145 -s 3 -d 12 -p cbr -e 500 -c 2 -i 8 -a 2 -x {1.0 5.0 7 ------- null}
h -t 4.1145 -s 3 -d 12 -p cbr -e 500 -c 2 -i 8 -a 2 -x {1.0 5.0 -1 ------- null}
d -t 4.114504 -s 4 -d 12 -p cbr -e 500 -c 2 -i 8 -a 2 -x {1.0 5.0 7 ------- null}
+ -t 4.11607142857143 -s 1 -d 3 -p cbr -e 500 -c 2 -i 15 -a 2 -x {1.0 5.0 13 ------- null}
- -t 4.11607142857143 -s 1 -d 3 -p cbr -e 500 -c 2 -i 15 -a 2 -x {1.0 5.0 13 ------- null}
h -t 4.11607142857143 -s 1 -d 3 -p cbr -e 500 -c 2 -i 15 -a 2 -x {1.0 5.0 -1 ------- null}
r -t 4.11878971428571 -s 12 -d 5 -p cbr -e 500 -c 2 -i 4 -a 2 -x {1.0 5.0 3 ------- null}
r -t 4.11914285714285 -s 1 -d 3 -p cbr -e 500 -c 2 -i 14 -a 2 -x {1.0 5.0 12 ------- null}
h -t 4.11914285714285 -s 3 -d 12 -p cbr -e 500 -c 2 -i 14 -a 2 -x {1.0 5.0 12 ------- null}
+ -t 4.12342857142857 -s 3 -d 12 -p cbr -e 500 -c 2 -i 9 -a 2 -x {1.0 5.0 8 ------- null}
- -t 4.12342857142857 -s 3 -d 12 -p cbr -e 500 -c 2 -i 9 -a 2 -x {1.0 5.0 8 ------- null}
h -t 4.12342857142857 -s 3 -d 12 -p cbr -e 500 -c 2 -i 9 -a 2 -x {1.0 5.0 -1 ------- null}
d -t 4.12343257142857 -s 4 -d 12 -p cbr -e 500 -c 2 -i 9 -a 2 -x {1.0 5.0 8 ------- null}
+ -t 4.125 -s 1 -d 3 -p cbr -e 500 -c 2 -i 16 -a 2 -x {1.0 5.0 14 ------- null}
- -t 4.125 -s 1 -d 3 -p cbr -e 500 -c 2 -i 16 -a 2 -x {1.0 5.0 14 ------- null}
h -t 4.125 -s 1 -d 3 -p cbr -e 500 -c 2 -i 16 -a 2 -x {1.0 5.0 -1 ------- null}
r -t 4.12771828571428 -s 12 -d 5 -p cbr -e 500 -c 2 -i 5 -a 2 -x {1.0 5.0 4 ------- null}
r -t 4.12807142857142 -s 1 -d 3 -p cbr -e 500 -c 2 -i 15 -a 2 -x {1.0 5.0 13 ------- null}
h -t 4.12807142857142 -s 3 -d 12 -p cbr -e 500 -c 2 -i 15 -a 2 -x {1.0 5.0 13 ------- null}
+ -t 4.130164 -s 4 -d 12 -p ack -e 40 -c 1 -i 12 -a 1 -x {4.0 0.0 0 ------- null}
- -t 4.130164 -s 4 -d 12 -p ack -e 40 -c 1 -i 12 -a 1 -x {4.0 0.0 0 ------- null}
h -t 4.130164 -s 4 -d 12 -p ack -e 40 -c 1 -i 12 -a 1 -x {4.0 0.0 -1 ------- null}
d -t 4.130168 -s 5 -d 12 -p ack -e 40 -c 1 -i 12 -a 1 -x {4.0 0.0 0 ------- null}
+ -t 4.13235714285714 -s 3 -d 12 -p cbr -e 500 -c 2 -i 10 -a 2 -x {1.0 5.0 9 ------- null}
- -t 4.13235714285714 -s 3 -d 12 -p cbr -e 500 -c 2 -i 10 -a 2 -x {1.0 5.0 9 ------- null}
h -t 4.13235714285714 -s 3 -d 12 -p cbr -e 500 -c 2 -i 10 -a 2 -x {1.0 5.0 -1 ------- null}
d -t 4.13236114285714 -s 4 -d 12 -p cbr -e 500 -c 2 -i 10 -a 2 -x {1.0 5.0 9 ------- null}
+ -t 4.13392857142857 -s 1 -d 3 -p cbr -e 500 -c 2 -i 17 -a 2 -x {1.0 5.0 15 ------- null}
- -t 4.13392857142857 -s 1 -d 3 -p cbr -e 500 -c 2 -i 17 -a 2 -x {1.0 5.0 15 ------- null}
h -t 4.13392857142857 -s 1 -d 3 -p cbr -e 500 -c 2 -i 17 -a 2 -x {1.0 5.0 -1 ------- null}
r -t 4.13664685714286 -s 12 -d 5 -p cbr -e 500 -c 2 -i 6 -a 2 -x {1.0 5.0 5 ------- null}
r -t 4.137 -s 1 -d 3 -p cbr -e 500 -c 2 -i 16 -a 2 -x {1.0 5.0 14 ------- null}
h -t 4.137 -s 3 -d 12 -p cbr -e 500 -c 2 -i 16 -a 2 -x {1.0 5.0 14 ------- null}
+ -t 4.14128571428571 -s 3 -d 12 -p cbr -e 500 -c 2 -i 11 -a 2 -x {1.0 5.0 10 ------- null}
- -t 4.14128571428571 -s 3 -d 12 -p cbr -e 500 -c 2 -i 11 -a 2 -x {1.0 5.0 10 ------- null}
h -t 4.14128571428571 -s 3 -d 12 -p cbr -e 500 -c 2 -i 11 -a 2 -x {1.0 5.0 -1 ------- null}
d -t 4.14128971428571 -s 4 -d 12 -p cbr -e 500 -c 2 -i 11 -a 2 -x {1.0 5.0 10 ------- null}
+ -t 4.14285714285714 -s 1 -d 3 -p cbr -e 500 -c 2 -i 18 -a 2 -x {1.0 5.0 16 ------- null}
- -t 4.14285714285714 -s 1 -d 3 -p cbr -e 500 -c 2 -i 18 -a 2 -x {1.0 5.0 16 ------- null}
h -t 4.14285714285714 -s 1 -d 3 -p cbr -e 500 -c 2 -i 18 -a 2 -x {1.0 5.0 -1 ------- null}
r -t 4.14557542857143 -s 12 -d 5 -p cbr -e 500 -c 2 -i 7 -a 2 -x {1.0 5.0 6 ------- null}
r -t 4.14592857142857 -s 1 -d 3 -p cbr -e 500 -c 2 -i 17 -a 2 -x {1.0 5.0 15 ------- null}
h -t 4.14592857142857 -s 3 -d 12 -p cbr -e 500 -c 2 -i 17 -a 2 -x {1.0 5.0 15 ------- null}
+ -t 4.15021428571428 -s 3 -d 12 -p cbr -e 500 -c 2 -i 13 -a 2 -x {1.0 5.0 11 ------- null}
- -t 4.15021428571428 -s 3 -d 12 -p cbr -e 500 -c 2 -i 13 -a 2 -x {1.0 5.0 11 ------- null}
h -t 4.15021428571428 -s 3 -d 12 -p cbr -e 500 -c 2 -i 13 -a 2 -x {1.0 5.0 -1 ------- null}
d -t 4.15021828571428 -s 4 -d 12 -p cbr -e 500 -c 2 -i 13 -a 2 -x {1.0 5.0 11 ------- null}
+ -t 4.15178571428571 -s 1 -d 3 -p cbr -e 500 -c 2 -i 19 -a 2 -x {1.0 5.0 17 ------- null}
- -t 4.15178571428571 -s 1 -d 3 -p cbr -e 500 -c 2 -i 19 -a 2 -x {1.0 5.0 17 ------- null}
h -t 4.15178571428571 -s 1 -d 3 -p cbr -e 500 -c 2 -i 19 -a 2 -x {1.0 5.0 -1 ------- null}
r -t 4.154504 -s 12 -d 5 -p cbr -e 500 -c 2 -i 8 -a 2 -x {1.0 5.0 7 ------- null}
r -t 4.15485714285714 -s 1 -d 3 -p cbr -e 500 -c 2 -i 18 -a 2 -x {1.0 5.0 16 ------- null}
h -t 4.15485714285714 -s 3 -d 12 -p cbr -e 500 -c 2 -i 18 -a 2 -x {1.0 5.0 16 ------- null}
+ -t 4.15914285714285 -s 3 -d 12 -p cbr -e 500 -c 2 -i 14 -a 2 -x {1.0 5.0 12 ------- null}
- -t 4.15914285714285 -s 3 -d 12 -p cbr -e 500 -c 2 -i 14 -a 2 -x {1.0 5.0 12 ------- null}
h -t 4.15914285714285 -s 3 -d 12 -p cbr -e 500 -c 2 -i 14 -a 2 -x {1.0 5.0 -1 ------- null}
d -t 4.15914685714285 -s 4 -d 12 -p cbr -e 500 -c 2 -i 14 -a 2 -x {1.0 5.0 12 ------- null}
+ -t 4.16071428571428 -s 1 -d 3 -p cbr -e 500 -c 2 -i 20 -a 2 -x {1.0 5.0 18 ------- null}
- -t 4.16071428571428 -s 1 -d 3 -p cbr -e 500 -c 2 -i 20 -a 2 -x {1.0 5.0 18 ------- null}
h -t 4.16071428571428 -s 1 -d 3 -p cbr -e 500 -c 2 -i 20 -a 2 -x {1.0 5.0 -1 ------- null}
r -t 4.16343257142857 -s 12 -d 5 -p cbr -e 500 -c 2 -i 9 -a 2 -x {1.0 5.0 8 ------- null}
r -t 4.16378571428571 -s 1 -d 3 -p cbr -e 500 -c 2 -i 19 -a 2 -x {1.0 5.0 17 ------- null}
h -t 4.16378571428571 -s 3 -d 12 -p cbr -e 500 -c 2 -i 19 -a 2 -x {1.0 5.0 17 ------- null}
+ -t 4.16807142857142 -s 3 -d 12 -p cbr -e 500 -c 2 -i 15 -a 2 -x {1.0 5.0 13 ------- null}
- -t 4.16807142857142 -s 3 -d 12 -p cbr -e 500 -c 2 -i 15 -a 2 -x {1.0 5.0 13 ------- null}
h -t 4.16807142857142 -s 3 -d 12 -p cbr -e 500 -c 2 -i 15 -a 2 -x {1.0 5.0 -1 ------- null}
d -t 4.16807542857142 -s 4 -d 12 -p cbr -e 500 -c 2 -i 15 -a 2 -x {1.0 5.0 13 ------- null}
+ -t 4.16964285714285 -s 1 -d 3 -p cbr -e 500 -c 2 -i 21 -a 2 -x {1.0 5.0 19 ------- null}
- -t 4.16964285714285 -s 1 -d 3 -p cbr -e 500 -c 2 -i 21 -a 2 -x {1.0 5.0 19 ------- null}
h -t 4.16964285714285 -s 1 -d 3 -p cbr -e 500 -c 2 -i 21 -a 2 -x {1.0 5.0 -1 ------- null}
r -t 4.170168 -s 12 -d 3 -p ack -e 40 -c 1 -i 12 -a 1 -x {4.0 0.0 0 ------- null}
+ -t 4.170168 -s 3 -d 0 -p ack -e 40 -c 1 -i 12 -a 1 -x {4.0 0.0 0 ------- null}
- -t 4.170168 -s 3 -d 0 -p ack -e 40 -c 1 -i 12 -a 1 -x {4.0 0.0 0 ------- null}
h -t 4.170168 -s 3 -d 0 -p ack -e 40 -c 1 -i 12 -a 1 -x {4.0 0.0 -1 ------- null}
r -t 4.17236114285714 -s 12 -d 5 -p cbr -e 500 -c 2 -i 10 -a 2 -x {1.0 5.0 9 ------- null}
r -t 4.17271428571428 -s 1 -d 3 -p cbr -e 500 -c 2 -i 20 -a 2 -x {1.0 5.0 18 ------- null}
h -t 4.17271428571428 -s 3 -d 12 -p cbr -e 500 -c 2 -i 20 -a 2 -x {1.0 5.0 18 ------- null}
+ -t 4.177 -s 3 -d 12 -p cbr -e 500 -c 2 -i 16 -a 2 -x {1.0 5.0 14 ------- null}
- -t 4.177 -s 3 -d 12 -p cbr -e 500 -c 2 -i 16 -a 2 -x {1.0 5.0 14 ------- null}
h -t 4.177 -s 3 -d 12 -p cbr -e 500 -c 2 -i 16 -a 2 -x {1.0 5.0 -1 ------- null}
d -t 4.177004 -s 4 -d 12 -p cbr -e 500 -c 2 -i 16 -a 2 -x {1.0 5.0 14 ------- null}
+ -t 4.17857142857142 -s 1 -d 3 -p cbr -e 500 -c 2 -i 22 -a 2 -x {1.0 5.0 20 ------- null}
- -t 4.17857142857142 -s 1 -d 3 -p cbr -e 500 -c 2 -i 22 -a 2 -x {1.0 5.0 20 ------- null}
h -t 4.17857142857142 -s 1 -d 3 -p cbr -e 500 -c 2 -i 22 -a 2 -x {1.0 5.0 -1 ------- null}
r -t 4.180328 -s 3 -d 0 -p ack -e 40 -c 1 -i 12 -a 1 -x {4.0 0.0 0 ------- null}
+ -t 4.180328 -s 0 -d 3 -p tcp -e 1040 -c 1 -i 23 -a 1 -x {0.0 4.0 1 ------- null}
- -t 4.180328 -s 0 -d 3 -p tcp -e 1040 -c 1 -i 23 -a 1 -x {0.0 4.0 1 ------- null}
h -t 4.180328 -s 0 -d 3 -p tcp -e 1040 -c 1 -i 23 -a 1 -x {0.0 4.0 -1 ------- null}
+ -t 4.180328 -s 0 -d 3 -p tcp -e 1040 -c 1 -i 24 -a 1 -x {0.0 4.0 2 ------- null}
r -t 4.18128971428571 -s 12 -d 5 -p cbr -e 500 -c 2 -i 11 -a 2 -x {1.0 5.0 10 ------- null}
r -t 4.18164285714285 -s 1 -d 3 -p cbr -e 500 -c 2 -i 21 -a 2 -x {1.0 5.0 19 ------- null}
h -t 4.18164285714285 -s 3 -d 12 -p cbr -e 500 -c 2 -i 21 -a 2 -x {1.0 5.0 19 ------- null}
- -t 4.184488 -s 0 -d 3 -p tcp -e 1040 -c 1 -i 24 -a 1 -x {0.0 4.0 2 ------- null}
h -t 4.184488 -s 0 -d 3 -p tcp -e 1040 -c 1 -i 24 -a 1 -x {0.0 4.0 -1 ------- null}
+ -t 4.18592857142857 -s 3 -d 12 -p cbr -e 500 -c 2 -i 17 -a 2 -x {1.0 5.0 15 ------- null}
- -t 4.18592857142857 -s 3 -d 12 -p cbr -e 500 -c 2 -i 17 -a 2 -x {1.0 5.0 15 ------- null}
h -t 4.18592857142857 -s 3 -d 12 -p cbr -e 500 -c 2 -i 17 -a 2 -x {1.0 5.0 -1 ------- null}
d -t 4.18593257142857 -s 4 -d 12 -p cbr -e 500 -c 2 -i 17 -a 2 -x {1.0 5.0 15 ------- null}
+ -t 4.18749999999999 -s 1 -d 3 -p cbr -e 500 -c 2 -i 25 -a 2 -x {1.0 5.0 21 ------- null}
- -t 4.18749999999999 -s 1 -d 3 -p cbr -e 500 -c 2 -i 25 -a 2 -x {1.0 5.0 21 ------- null}
h -t 4.18749999999999 -s 1 -d 3 -p cbr -e 500 -c 2 -i 25 -a 2 -x {1.0 5.0 -1 ------- null}
r -t 4.19021828571428 -s 12 -d 5 -p cbr -e 500 -c 2 -i 13 -a 2 -x {1.0 5.0 11 ------- null}
r -t 4.19057142857142 -s 1 -d 3 -p cbr -e 500 -c 2 -i 22 -a 2 -x {1.0 5.0 20 ------- null}
h -t 4.19057142857142 -s 3 -d 12 -p cbr -e 500 -c 2 -i 22 -a 2 -x {1.0 5.0 20 ------- null}
r -t 4.194488 -s 0 -d 3 -p tcp -e 1040 -c 1 -i 23 -a 1 -x {0.0 4.0 1 ------- null}
h -t 4.194488 -s 3 -d 12 -p tcp -e 1040 -c 1 -i 23 -a 1 -x {0.0 4.0 1 ------- null}
+ -t 4.19485714285714 -s 3 -d 12 -p cbr -e 500 -c 2 -i 18 -a 2 -x {1.0 5.0 16 ------- null}
- -t 4.19485714285714 -s 3 -d 12 -p cbr -e 500 -c 2 -i 18 -a 2 -x {1.0 5.0 16 ------- null}
h -t 4.19485714285714 -s 3 -d 12 -p cbr -e 500 -c 2 -i 18 -a 2 -x {1.0 5.0 -1 ------- null}
d -t 4.19486114285714 -s 4 -d 12 -p cbr -e 500 -c 2 -i 18 -a 2 -x {1.0 5.0 16 ------- null}
+ -t 4.19642857142857 -s 1 -d 3 -p cbr -e 500 -c 2 -i 26 -a 2 -x {1.0 5.0 22 ------- null}
- -t 4.19642857142857 -s 1 -d 3 -p cbr -e 500 -c 2 -i 26 -a 2 -x {1.0 5.0 22 ------- null}
h -t 4.19642857142857 -s 1 -d 3 -p cbr -e 500 -c 2 -i 26 -a 2 -x {1.0 5.0 -1 ------- null}
r -t 4.198648 -s 0 -d 3 -p tcp -e 1040 -c 1 -i 24 -a 1 -x {0.0 4.0 2 ------- null}
h -t 4.198648 -s 3 -d 12 -p tcp -e 1040 -c 1 -i 24 -a 1 -x {0.0 4.0 2 ------- null}
r -t 4.19914685714285 -s 12 -d 5 -p cbr -e 500 -c 2 -i 14 -a 2 -x {1.0 5.0 12 ------- null}
r -t 4.19949999999999 -s 1 -d 3 -p cbr -e 500 -c 2 -i 25 -a 2 -x {1.0 5.0 21 ------- null}
h -t 4.19949999999999 -s 3 -d 12 -p cbr -e 500 -c 2 -i 25 -a 2 -x {1.0 5.0 21 ------- null}
+ -t 4.20378571428571 -s 3 -d 12 -p cbr -e 500 -c 2 -i 19 -a 2 -x {1.0 5.0 17 ------- null}
- -t 4.20378571428571 -s 3 -d 12 -p cbr -e 500 -c 2 -i 19 -a 2 -x {1.0 5.0 17 ------- null}
h -t 4.20378571428571 -s 3 -d 12 -p cbr -e 500 -c 2 -i 19 -a 2 -x {1.0 5.0 -1 ------- null}
d -t 4.20378971428571 -s 4 -d 12 -p cbr -e 500 -c 2 -i 19 -a 2 -x {1.0 5.0 17 ------- null}
+ -t 4.20535714285714 -s 1 -d 3 -p cbr -e 500 -c 2 -i 27 -a 2 -x {1.0 5.0 23 ------- null}
- -t 4.20535714285714 -s 1 -d 3 -p cbr -e 500 -c 2 -i 27 -a 2 -x {1.0 5.0 23 ------- null}
h -t 4.20535714285714 -s 1 -d 3 -p cbr -e 500 -c 2 -i 27 -a 2 -x {1.0 5.0 -1 ------- null}
r -t 4.20807542857142 -s 12 -d 5 -p cbr -e 500 -c 2 -i 15 -a 2 -x {1.0 5.0 13 ------- null}
r -t 4.20842857142857 -s 1 -d 3 -p cbr -e 500 -c 2 -i 26 -a 2 -x {1.0 5.0 22 ------- null}
h -t 4.20842857142857 -s 3 -d 12 -p cbr -e 500 -c 2 -i 26 -a 2 -x {1.0 5.0 22 ------- null}
+ -t 4.21271428571428 -s 3 -d 12 -p cbr -e 500 -c 2 -i 20 -a 2 -x {1.0 5.0 18 ------- null}
- -t 4.21271428571428 -s 3 -d 12 -p cbr -e 500 -c 2 -i 20 -a 2 -x {1.0 5.0 18 ------- null}
h -t 4.21271428571428 -s 3 -d 12 -p cbr -e 500 -c 2 -i 20 -a 2 -x {1.0 5.0 -1 ------- null}
d -t 4.21271828571428 -s 4 -d 12 -p cbr -e 500 -c 2 -i 20 -a 2 -x {1.0 5.0 18 ------- null}
+ -t 4.21428571428571 -s 1 -d 3 -p cbr -e 500 -c 2 -i 28 -a 2 -x {1.0 5.0 24 ------- null}
- -t 4.21428571428571 -s 1 -d 3 -p cbr -e 500 -c 2 -i 28 -a 2 -x {1.0 5.0 24 ------- null}
h -t 4.21428571428571 -s 1 -d 3 -p cbr -e 500 -c 2 -i 28 -a 2 -x {1.0 5.0 -1 ------- null}
r -t 4.217004 -s 12 -d 5 -p cbr -e 500 -c 2 -i 16 -a 2 -x {1.0 5.0 14 ------- null}
r -t 4.21735714285714 -s 1 -d 3 -p cbr -e 500 -c 2 -i 27 -a 2 -x {1.0 5.0 23 ------- null}
h -t 4.21735714285714 -s 3 -d 12 -p cbr -e 500 -c 2 -i 27 -a 2 -x {1.0 5.0 23 ------- null}
+ -t 4.22164285714285 -s 3 -d 12 -p cbr -e 500 -c 2 -i 21 -a 2 -x {1.0 5.0 19 ------- null}
- -t 4.22164285714285 -s 3 -d 12 -p cbr -e 500 -c 2 -i 21 -a 2 -x {1.0 5.0 19 ------- null}
h -t 4.22164285714285 -s 3 -d 12 -p cbr -e 500 -c 2 -i 21 -a 2 -x {1.0 5.0 -1 ------- null}
d -t 4.22164685714285 -s 4 -d 12 -p cbr -e 500 -c 2 -i 21 -a 2 -x {1.0 5.0 19 ------- null}
+ -t 4.22321428571428 -s 1 -d 3 -p cbr -e 500 -c 2 -i 29 -a 2 -x {1.0 5.0 25 ------- null}
- -t 4.22321428571428 -s 1 -d 3 -p cbr -e 500 -c 2 -i 29 -a 2 -x {1.0 5.0 25 ------- null}
h -t 4.22321428571428 -s 1 -d 3 -p cbr -e 500 -c 2 -i 29 -a 2 -x {1.0 5.0 -1 ------- null}
r -t 4.22593257142857 -s 12 -d 5 -p cbr -e 500 -c 2 -i 17 -a 2 -x {1.0 5.0 15 ------- null}
r -t 4.22628571428571 -s 1 -d 3 -p cbr -e 500 -c 2 -i 28 -a 2 -x {1.0 5.0 24 ------- null}
h -t 4.22628571428571 -s 3 -d 12 -p cbr -e 500 -c 2 -i 28 -a 2 -x {1.0 5.0 24 ------- null}
+ -t 4.23057142857142 -s 3 -d 12 -p cbr -e 500 -c 2 -i 22 -a 2 -x {1.0 5.0 20 ------- null}
- -t 4.23057142857142 -s 3 -d 12 -p cbr -e 500 -c 2 -i 22 -a 2 -x {1.0 5.0 20 ------- null}
h -t 4.23057142857142 -s 3 -d 12 -p cbr -e 500 -c 2 -i 22 -a 2 -x {1.0 5.0 -1 ------- null}
d -t 4.23057542857142 -s 4 -d 12 -p cbr -e 500 -c 2 -i 22 -a 2 -x {1.0 5.0 20 ------- null}
+ -t 4.23214285714285 -s 1 -d 3 -p cbr -e 500 -c 2 -i 30 -a 2 -x {1.0 5.0 26 ------- null}
- -t 4.23214285714285 -s 1 -d 3 -p cbr -e 500 -c 2 -i 30 -a 2 -x {1.0 5.0 26 ------- null}
h -t 4.23214285714285 -s 1 -d 3 -p cbr -e 500 -c 2 -i 30 -a 2 -x {1.0 5.0 -1 ------- null}
+ -t 4.234488 -s 3 -d 12 -p tcp -e 1040 -c 1 -i 23 -a 1 -x {0.0 4.0 1 ------- null}
- -t 4.234488 -s 3 -d 12 -p tcp -e 1040 -c 1 -i 23 -a 1 -x {0.0 4.0 1 ------- null}
h -t 4.234488 -s 3 -d 12 -p tcp -e 1040 -c 1 -i 23 -a 1 -x {0.0 4.0 -1 ------- null}
d -t 4.234492 -s 5 -d 12 -p tcp -e 1040 -c 1 -i 23 -a 1 -x {0.0 4.0 1 ------- null}
r -t 4.23486114285714 -s 12 -d 5 -p cbr -e 500 -c 2 -i 18 -a 2 -x {1.0 5.0 16 ------- null}
r -t 4.23521428571428 -s 1 -d 3 -p cbr -e 500 -c 2 -i 29 -a 2 -x {1.0 5.0 25 ------- null}
h -t 4.23521428571428 -s 3 -d 12 -p cbr -e 500 -c 2 -i 29 -a 2 -x {1.0 5.0 25 ------- null}
+ -t 4.238648 -s 3 -d 12 -p tcp -e 1040 -c 1 -i 24 -a 1 -x {0.0 4.0 2 ------- null}
- -t 4.238904 -s 3 -d 12 -p tcp -e 1040 -c 1 -i 24 -a 1 -x {0.0 4.0 2 ------- null}
h -t 4.238904 -s 3 -d 12 -p tcp -e 1040 -c 1 -i 24 -a 1 -x {0.0 4.0 -1 ------- null}
d -t 4.238908 -s 5 -d 12 -p tcp -e 1040 -c 1 -i 24 -a 1 -x {0.0 4.0 2 ------- null}
+ -t 4.23949999999999 -s 3 -d 12 -p cbr -e 500 -c 2 -i 25 -a 2 -x {1.0 5.0 21 ------- null}
+ -t 4.24107142857142 -s 1 -d 3 -p cbr -e 500 -c 2 -i 31 -a 2 -x {1.0 5.0 27 ------- null}
- -t 4.24107142857142 -s 1 -d 3 -p cbr -e 500 -c 2 -i 31 -a 2 -x {1.0 5.0 27 ------- null}
h -t 4.24107142857142 -s 1 -d 3 -p cbr -e 500 -c 2 -i 31 -a 2 -x {1.0 5.0 -1 ------- null}
- -t 4.24332 -s 3 -d 12 -p cbr -e 500 -c 2 -i 25 -a 2 -x {1.0 5.0 21 ------- null}
h -t 4.24332 -s 3 -d 12 -p cbr -e 500 -c 2 -i 25 -a 2 -x {1.0 5.0 -1 ------- null}
d -t 4.243324 -s 4 -d 12 -p cbr -e 500 -c 2 -i 25 -a 2 -x {1.0 5.0 21 ------- null}
r -t 4.24378971428571 -s 12 -d 5 -p cbr -e 500 -c 2 -i 19 -a 2 -x {1.0 5.0 17 ------- null}
r -t 4.24414285714285 -s 1 -d 3 -p cbr -e 500 -c 2 -i 30 -a 2 -x {1.0 5.0 26 ------- null}
h -t 4.24414285714285 -s 3 -d 12 -p cbr -e 500 -c 2 -i 30 -a 2 -x {1.0 5.0 26 ------- null}
+ -t 4.24842857142857 -s 3 -d 12 -p cbr -e 500 -c 2 -i 26 -a 2 -x {1.0 5.0 22 ------- null}
- -t 4.24842857142857 -s 3 -d 12 -p cbr -e 500 -c 2 -i 26 -a 2 -x {1.0 5.0 22 ------- null}
h -t 4.24842857142857 -s 3 -d 12 -p cbr -e 500 -c 2 -i 26 -a 2 -x {1.0 5.0 -1 ------- null}
d -t 4.24843257142857 -s 4 -d 12 -p cbr -e 500 -c 2 -i 26 -a 2 -x {1.0 5.0 22 ------- null}
+ -t 4.24999999999999 -s 1 -d 3 -p cbr -e 500 -c 2 -i 32 -a 2 -x {1.0 5.0 28 ------- null}
- -t 4.24999999999999 -s 1 -d 3 -p cbr -e 500 -c 2 -i 32 -a 2 -x {1.0 5.0 28 ------- null}
h -t 4.24999999999999 -s 1 -d 3 -p cbr -e 500 -c 2 -i 32 -a 2 -x {1.0 5.0 -1 ------- null}
r -t 4.25271828571428 -s 12 -d 5 -p cbr -e 500 -c 2 -i 20 -a 2 -x {1.0 5.0 18 ------- null}
r -t 4.25307142857142 -s 1 -d 3 -p cbr -e 500 -c 2 -i 31 -a 2 -x {1.0 5.0 27 ------- null}
h -t 4.25307142857142 -s 3 -d 12 -p cbr -e 500 -c 2 -i 31 -a 2 -x {1.0 5.0 27 ------- null}
+ -t 4.25735714285714 -s 3 -d 12 -p cbr -e 500 -c 2 -i 27 -a 2 -x {1.0 5.0 23 ------- null}
- -t 4.25735714285714 -s 3 -d 12 -p cbr -e 500 -c 2 -i 27 -a 2 -x {1.0 5.0 23 ------- null}
h -t 4.25735714285714 -s 3 -d 12 -p cbr -e 500 -c 2 -i 27 -a 2 -x {1.0 5.0 -1 ------- null}
d -t 4.25736114285714 -s 4 -d 12 -p cbr -e 500 -c 2 -i 27 -a 2 -x {1.0 5.0 23 ------- null}
+ -t 4.25892857142856 -s 1 -d 3 -p cbr -e 500 -c 2 -i 33 -a 2 -x {1.0 5.0 29 ------- null}
- -t 4.25892857142856 -s 1 -d 3 -p cbr -e 500 -c 2 -i 33 -a 2 -x {1.0 5.0 29 ------- null}
h -t 4.25892857142856 -s 1 -d 3 -p cbr -e 500 -c 2 -i 33 -a 2 -x {1.0 5.0 -1 ------- null}
r -t 4.26164685714285 -s 12 -d 5 -p cbr -e 500 -c 2 -i 21 -a 2 -x {1.0 5.0 19 ------- null}
r -t 4.26199999999999 -s 1 -d 3 -p cbr -e 500 -c 2 -i 32 -a 2 -x {1.0 5.0 28 ------- null}
h -t 4.26199999999999 -s 3 -d 12 -p cbr -e 500 -c 2 -i 32 -a 2 -x {1.0 5.0 28 ------- null}
+ -t 4.26628571428571 -s 3 -d 12 -p cbr -e 500 -c 2 -i 28 -a 2 -x {1.0 5.0 24 ------- null}
- -t 4.26628571428571 -s 3 -d 12 -p cbr -e 500 -c 2 -i 28 -a 2 -x {1.0 5.0 24 ------- null}
h -t 4.26628571428571 -s 3 -d 12 -p cbr -e 500 -c 2 -i 28 -a 2 -x {1.0 5.0 -1 ------- null}
d -t 4.26628971428571 -s 4 -d 12 -p cbr -e 500 -c 2 -i 28 -a 2 -x {1.0 5.0 24 ------- null}
+ -t 4.26785714285714 -s 1 -d 3 -p cbr -e 500 -c 2 -i 34 -a 2 -x {1.0 5.0 30 ------- null}
- -t 4.26785714285714 -s 1 -d 3 -p cbr -e 500 -c 2 -i 34 -a 2 -x {1.0 5.0 30 ------- null}
h -t 4.26785714285714 -s 1 -d 3 -p cbr -e 500 -c 2 -i 34 -a 2 -x {1.0 5.0 -1 ------- null}
r -t 4.27057542857142 -s 12 -d 5 -p cbr -e 500 -c 2 -i 22 -a 2 -x {1.0 5.0 20 ------- null}
r -t 4.27092857142856 -s 1 -d 3 -p cbr -e 500 -c 2 -i 33 -a 2 -x {1.0 5.0 29 ------- null}
h -t 4.27092857142856 -s 3 -d 12 -p cbr -e 500 -c 2 -i 33 -a 2 -x {1.0 5.0 29 ------- null}
r -t 4.274492 -s 12 -d 4 -p tcp -e 1040 -c 1 -i 23 -a 1 -x {0.0 4.0 1 ------- null}
h -t 4.274492 -s 4 -d 12 -p ack -e 40 -c 1 -i 35 -a 1 -x {4.0 0.0 1 ------- null}
+ -t 4.27521428571428 -s 3 -d 12 -p cbr -e 500 -c 2 -i 29 -a 2 -x {1.0 5.0 25 ------- null}
- -t 4.27521428571428 -s 3 -d 12 -p cbr -e 500 -c 2 -i 29 -a 2 -x {1.0 5.0 25 ------- null}
h -t 4.27521428571428 -s 3 -d 12 -p cbr -e 500 -c 2 -i 29 -a 2 -x {1.0 5.0 -1 ------- null}