+ 4 0 3 tcp 40 ------- 1 0.0 4.0 0 0
- 4 0 3 tcp 40 ------- 1 0.0 4.0 0 0
+ 4 1 3 cbr 500 ------- 2 1.0 5.0 0 1
- 4 1 3 cbr 500 ------- 2 1.0 5.0 0 1
+ 4.008929 1 3 cbr 500 ------- 2 1.0 5.0 1 2
- 4.008929 1 3 cbr 500 ------- 2 1.0 5.0 1 2
r 4.01016 0 3 tcp 40 ------- 1 0.0 4.0 0 0
h 4.01016 3 12 tcp 40 ------- 1 0.0 4.0 0 0
r 4.012 1 3 cbr 500 ------- 2 1.0 5.0 0 1
h 4.012 3 12 cbr 500 ------- 2 1.0 5.0 0 1
+ 4.017857 1 3 cbr 500 ------- 2 1.0 5.0 2 3
- 4.017857 1 3 cbr 500 ------- 2 1.0 5.0 2 3
r 4.020929 1 3 cbr 500 ------- 2 1.0 5.0 1 2
h 4.020929 3 12 cbr 500 ------- 2 1.0 5.0 1 2
+ 4.026786 1 3 cbr 500 ------- 2 1.0 5.0 3 4
- 4.026786 1 3 cbr 500 ------- 2 1.0 5.0 3 4
r 4.029857 1 3 cbr 500 ------- 2 1.0 5.0 2 3
h 4.029857 3 12 cbr 500 ------- 2 1.0 5.0 2 3
+ 4.035714 1 3 cbr 500 ------- 2 1.0 5.0 4 5
- 4.035714 1 3 cbr 500 ------- 2 1.0 5.0 4 5
r 4.038786 1 3 cbr 500 ------- 2 1.0 5.0 3 4
h 4.038786 3 12 cbr 500 ------- 2 1.0 5.0 3 4
+ 4.044643 1 3 cbr 500 ------- 2 1.0 5.0 5 6
- 4.044643 1 3 cbr 500 ------- 2 1.0 5.0 5 6
r 4.047714 1 3 cbr 500 ------- 2 1.0 5.0 4 5
h 4.047714 3 12 cbr 500 ------- 2 1.0 5.0 4 5
+ 4.05016 3 12 tcp 40 ------- 1 0.0 4.0 0 0
- 4.05016 3 12 tcp 40 ------- 1 0.0 4.0 0 0
d 4.050164 5 12 tcp 40 ------- 1 0.0 4.0 0 0
+ 4.052 3 12 cbr 500 ------- 2 1.0 5.0 0 1
- 4.052 3 12 cbr 500 ------- 2 1.0 5.0 0 1
d 4.052004 4 12 cbr 500 ------- 2 1.0 5.0 0 1
+ 4.053571 1 3 cbr 500 ------- 2 1.0 5.0 6 7
- 4.053571 1 3 cbr 500 ------- 2 1.0 5.0 6 7
r 4.056643 1 3 cbr 500 ------- 2 1.0 5.0 5 6
h 4.056643 3 12 cbr 500 ------- 2 1.0 5.0 5 6
+ 4.060929 3 12 cbr 500 ------- 2 1.0 5.0 1 2
- 4.060929 3 12 cbr 500 ------- 2 1.0 5.0 1 2
d 4.060933 4 12 cbr 500 ------- 2 1.0 5.0 1 2
+ 4.0625 1 3 cbr 500 ------- 2 1.0 5.0 7 8
- 4.0625 1 3 cbr 500 ------- 2 1.0 5.0 7 8
r 4.065571 1 3 cbr 500 ------- 2 1.0 5.0 6 7
h 4.065571 3 12 cbr 500 ------- 2 1.0 5.0 6 7
+ 4.069857 3 12 cbr 500 ------- 2 1.0 5.0 2 3
- 4.069857 3 12 cbr 500 ------- 2 1.0 5.0 2 3
d 4.069861 4 12 cbr 500 ------- 2 1.0 5.0 2 3
+ 4.071429 1 3 cbr 500 ------- 2 1.0 5.0 8 9
- 4.071429 1 3 cbr 500 ------- 2 1.0 5.0 8 9
r 4.0745 1 3 cbr 500 ------- 2 1.0 5.0 7 8
h 4.0745 3 12 cbr 500 ------- 2 1.0 5.0 7 8
+ 4.078786 3 12 cbr 500 ------- 2 1.0 5.0 3 4
- 4.078786 3 12 cbr 500 ------- 2 1.0 5.0 3 4
d 4.07879 4 12 cbr 500 ------- 2 1.0 5.0 3 4
+ 4.080357 1 3 cbr 500 ------- 2 1.0 5.0 9 10
- 4.080357 1 3 cbr 500 ------- 2 1.0 5.0 9 10
r 4.083429 1 3 cbr 500 ------- 2 1.0 5.0 8 9
h 4.083429 3 12 cbr 500 ------- 2 1.0 5.0 8 9
+ 4.087714 3 12 cbr 500 ------- 2 1.0 5.0 4 5
- 4.087714 3 12 cbr 500 ------- 2 1.0 5.0 4 5
d 4.087718 4 12 cbr 500 ------- 2 1.0 5.0 4 5
+ 4.089286 1 3 cbr 500 ------- 2 1.0 5.0 10 11
- 4.089286 1 3 cbr 500 ------- 2 1.0 5.0 10 11
r 4.090164 12 4 tcp 40 ------- 1 0.0 4.0 0 0
h 4.090164 4 12 ack 40 ------- 1 4.0 0.0 0 12
r 4.092004 12 5 cbr 500 ------- 2 1.0 5.0 0 1
r 4.092357 1 3 cbr 500 ------- 2 1.0 5.0 9 10
h 4.092357 3 12 cbr 500 ------- 2 1.0 5.0 9 10
+ 4.096643 3 12 cbr 500 ------- 2 1.0 5.0 5 6
- 4.096643 3 12 cbr 500 ------- 2 1.0 5.0 5 6
d 4.096647 4 12 cbr 500 ------- 2 1.0 5.0 5 6
+ 4.098214 1 3 cbr 500 ------- 2 1.0 5.0 11 13
- 4.098214 1 3 cbr 500 ------- 2 1.0 5.0 11 13
r 4.100933 12 5 cbr 500 ------- 2 1.0 5.0 1 2
r 4.101286 1 3 cbr 500 ------- 2 1.0 5.0 10 11
h 4.101286 3 12 cbr 500 ------- 2 1.0 5.0 10 11
+ 4.105571 3 12 cbr 500 ------- 2 1.0 5.0 6 7
- 4.105571 3 12 cbr 500 ------- 2 1.0 5.0 6 7
d 4.105575 4 12 cbr 500 ------- 2 1.0 5.0 6 7
+ 4.107143 1 3 cbr 500 ------- 2 1.0 5.0 12 14
- 4.107143 1 3 cbr 500 ------- 2 1.0 5.0 12 14
r 4.109861 12 5 cbr 500 ------- 2 1.0 5.0 2 3
r 4.110214 1 3 cbr 500 ------- 2 1.0 5.0 11 13
h 4.110214 3 12 cbr 500 ------- 2 1.0 5.0 11 13
+ 4.1145 3 12 cbr 500 ------- 2 1.0 5.0 7 8
- 4.1145 3 12 cbr 500 ------- 2 1.0 5.0 7 8
d 4.114504 4 12 cbr 500 ------- 2 1.0 5.0 7 8
+ 4.116071 1 3 cbr 500 ------- 2 1.0 5.0 13 15
- 4.116071 1 3 cbr 500 ------- 2 1.0 5.0 13 15
r 4.11879 12 5 cbr 500 ------- 2 1.0 5.0 3 4
r 4.119143 1 3 cbr 500 ------- 2 1.0 5.0 12 14
h 4.119143 3 12 cbr 500 ------- 2 1.0 5.0 12 14
+ 4.123429 3 12 cbr 500 ------- 2 1.0 5.0 8 9
- 4.123429 3 12 cbr 500 ------- 2 1.0 5.0 8 9
d 4.123433 4 12 cbr 500 ------- 2 1.0 5.0 8 9
+ 4.125 1 3 cbr 500 ------- 2 1.0 5.0 14 16
- 4.125 1 3 cbr 500 ------- 2 1.0 5.0 14 16
r 4.127718 12 5 cbr 500 ------- 2 1.0 5.0 4 5
r 4.128071 1 3 cbr 500 ------- 2 1.0 5.0 13 15
h 4.128071 3 12 cbr 500 ------- 2 1.0 5.0 13 15
+ 4.130164 4 12 ack 40 ------- 1 4.0 0.0 0 12
- 4.130164 4 12 ack 40 ------- 1 4.0 0.0 0 12
d 4.130168 5 12 ack 40 ------- 1 4.0 0.0 0 12
+ 4.132357 3 12 cbr 500 ------- 2 1.0 5.0 9 10
- 4.132357 3 12 cbr 500 ------- 2 1.0 5.0 9 10
d 4.132361 4 12 cbr 500 ------- 2 1.0 5.0 9 10
+ 4.133929 1 3 cbr 500 ------- 2 1.0 5.0 15 17
- 4.133929 1 3 cbr 500 ------- 2 1.0 5.0 15 17
r 4.136647 12 5 cbr 500 ------- 2 1.0 5.0 5 6
r 4.137 1 3 cbr 500 ------- 2 1.0 5.0 14 16
h 4.137 3 12 cbr 500 ------- 2 1.0 5.0 14 16
+ 4.141286 3 12 cbr 500 ------- 2 1.0 5.0 10 11
- 4.141286 3 12 cbr 500 ------- 2 1.0 5.0 10 11
d 4.14129 4 12 cbr 500 ------- 2 1.0 5.0 10 11
+ 4.142857 1 3 cbr 500 ------- 2 1.0 5.0 16 18
- 4.142857 1 3 cbr 500 ------- 2 1.0 5.0 16 18
r 4.145575 12 5 cbr 500 ------- 2 1.0 5.0 6 7
r 4.145929 1 3 cbr 500 ------- 2 1.0 5.0 15 17
h 4.145929 3 12 cbr 500 ------- 2 1.0 5.0 15 17
+ 4.150214 3 12 cbr 500 ------- 2 1.0 5.0 11 13
- 4.150214 3 12 cbr 500 ------- 2 1.0 5.0 11 13
d 4.150218 4 12 cbr 500 ------- 2 1.0 5.0 11 13
+ 4.151786 1 3 cbr 500 ------- 2 1.0 5.0 17 19
- 4.151786 1 3 cbr 500 ------- 2 1.0 5.0 17 19
r 4.154504 12 5 cbr 500 ------- 2 1.0 5.0 7 8
r 4.154857 1 3 cbr 500 ------- 2 1.0 5.0 16 18
h 4.154857 3 12 cbr 500 ------- 2 1.0 5.0 16 18
+ 4.159143 3 12 cbr 500 ------- 2 1.0 5.0 12 14
- 4.159143 3 12 cbr 500 ------- 2 1.0 5.0 12 14
d 4.159147 4 12 cbr 500 ------- 2 1.0 5.0 12 14
+ 4.160714 1 3 cbr 500 ------- 2 1.0 5.0 18 20
- 4.160714 1 3 cbr 500 ------- 2 1.0 5.0 18 20
r 4.163433 12 5 cbr 500 ------- 2 1.0 5.0 8 9
r 4.163786 1 3 cbr 500 ------- 2 1.0 5.0 17 19
h 4.163786 3 12 cbr 500 ------- 2 1.0 5.0 17 19
+ 4.168071 3 12 cbr 500 ------- 2 1.0 5.0 13 15
- 4.168071 3 12 cbr 500 ------- 2 1.0 5.0 13 15
d 4.168075 4 12 cbr 500 ------- 2 1.0 5.0 13 15
+ 4.169643 1 3 cbr 500 ------- 2 1.0 5.0 19 21
- 4.169643 1 3 cbr 500 ------- 2 1.0 5.0 19 21
r 4.170168 12 3 ack 40 ------- 1 4.0 0.0 0 12
+ 4.170168 3 0 ack 40 ------- 1 4.0 0.0 0 12
- 4.170168 3 0 ack 40 ------- 1 4.0 0.0 0 12
r 4.172361 12 5 cbr 500 ------- 2 1.0 5.0 9 10
r 4.172714 1 3 cbr 500 ------- 2 1.0 5.0 18 20
h 4.172714 3 12 cbr 500 ------- 2 1.0 5.0 18 20
+ 4.177 3 12 cbr 500 ------- 2 1.0 5.0 14 16
- 4.177 3 12 cbr 500 ------- 2 1.0 5.0 14 16
d 4.177004 4 12 cbr 500 ------- 2 1.0 5.0 14 16
+ 4.178571 1 3 cbr 500 ------- 2 1.0 5.0 20 22
- 4.178571 1 3 cbr 500 ------- 2 1.0 5.0 20 22
r 4.180328 3 0 ack 40 ------- 1 4.0 0.0 0 12
+ 4.180328 0 3 tcp 1040 ------- 1 0.0 4.0 1 23
- 4.180328 0 3 tcp 1040 ------- 1 0.0 4.0 1 23
+ 4.180328 0 3 tcp 1040 ------- 1 0.0 4.0 2 24
r 4.18129 12 5 cbr 500 ------- 2 1.0 5.0 10 11
r 4.181643 1 3 cbr 500 ------- 2 1.0 5.0 19 21
h 4.181643 3 12 cbr 500 ------- 2 1.0 5.0 19 21
- 4.184488 0 3 tcp 1040 ------- 1 0.0 4.0 2 24
+ 4.185929 3 12 cbr 500 ------- 2 1.0 5.0 15 17
- 4.185929 3 12 cbr 500 ------- 2 1.0 5.0 15 17
d 4.185933 4 12 cbr 500 ------- 2 1.0 5.0 15 17
+ 4.1875 1 3 cbr 500 ------- 2 1.0 5.0 21 25
- 4.1875 1 3 cbr 500 ------- 2 1.0 5.0 21 25
r 4.190218 12 5 cbr 500 ------- 2 1.0 5.0 11 13
r 4.190571 1 3 cbr 500 ------- 2 1.0 5.0 20 22
h 4.190571 3 12 cbr 500 ------- 2 1.0 5.0 20 22
r 4.194488 0 3 tcp 1040 ------- 1 0.0 4.0 1 23
h 4.194488 3 12 tcp 1040 ------- 1 0.0 4.0 1 23
+ 4.194857 3 12 cbr 500 ------- 2 1.0 5.0 16 18
- 4.194857 3 12 cbr 500 ------- 2 1.0 5.0 16 18
d 4.194861 4 12 cbr 500 ------- 2 1.0 5.0 16 18
+ 4.196429 1 3 cbr 500 ------- 2 1.0 5.0 22 26
- 4.196429 1 3 cbr 500 ------- 2 1.0 5.0 22 26
r 4.198648 0 3 tcp 1040 ------- 1 0.0 4.0 2 24
h 4.198648 3 12 tcp 1040 ------- 1 0.0 4.0 2 24
r 4.199147 12 5 cbr 500 ------- 2 1.0 5.0 12 14
r 4.1995 1 3 cbr 500 ------- 2 1.0 5.0 21 25
h 4.1995 3 12 cbr 500 ------- 2 1.0 5.0 21 25
+ 4.203786 3 12 cbr 500 ------- 2 1.0 5.0 17 19
- 4.203786 3 12 cbr 500 ------- 2 1.0 5.0 17 19
d 4.20379 4 12 cbr 500 ------- 2 1.0 5.0 17 19
+ 4.205357 1 3 cbr 500 ------- 2 1.0 5.0 23 27
- 4.205357 1 3 cbr 500 ------- 2 1.0 5.0 23 27
r 4.208075 12 5 cbr 500 ------- 2 1.0 5.0 13 15
r 4.208429 1 3 cbr 500 ------- 2 1.0 5.0 22 26
h 4.208429 3 12 cbr 500 ------- 2 1.0 5.0 22 26
+ 4.212714 3 12 cbr 500 ------- 2 1.0 5.0 18 20
- 4.212714 3 12 cbr 500 ------- 2 1.0 5.0 18 20
d 4.212718 4 12 cbr 500 ------- 2 1.0 5.0 18 20
+ 4.214286 1 3 cbr 500 ------- 2 1.0 5.0 24 28
- 4.214286 1 3 cbr 500 ------- 2 1.0 5.0 24 28
r 4.217004 12 5 cbr 500 ------- 2 1.0 5.0 14 16
r 4.217357 1 3 cbr 500 ------- 2 1.0 5.0 23 27
h 4.217357 3 12 cbr 500 ------- 2 1.0 5.0 23 27
+ 4.221643 3 12 cbr 500 ------- 2 1.0 5.0 19 21
- 4.221643 3 12 cbr 500 ------- 2 1.0 5.0 19 21
d 4.221647 4 12 cbr 500 ------- 2 1.0 5.0 19 21
+ 4.223214 1 3 cbr 500 ------- 2 1.0 5.0 25 29
- 4.223214 1 3 cbr 500 ------- 2 1.0 5.0 25 29
r 4.225933 12 5 cbr 500 ------- 2 1.0 5.0 15 17
r 4.226286 1 3 cbr 500 ------- 2 1.0 5.0 24 28
h 4.226286 3 12 cbr 500 ------- 2 1.0 5.0 24 28
+ 4.230571 3 12 cbr 500 ------- 2 1.0 5.0 20 22
- 4.230571 3 12 cbr 500 ------- 2 1.0 5.0 20 22
d 4.230575 4 12 cbr 500 ------- 2 1.0 5.0 20 22
+ 4.232143 1 3 cbr 500 ------- 2 1.0 5.0 26 30
- 4.232143 1 3 cbr 500 ------- 2 1.0 5.0 26 30
+ 4.234488 3 12 tcp 1040 ------- 1 0.0 4.0 1 23
- 4.234488 3 12 tcp 1040 ------- 1 0.0 4.0 1 23
d 4.234492 5 12 tcp 1040 ------- 1 0.0 4.0 1 23
r 4.234861 12 5 cbr 500 ------- 2 1.0 5.0 16 18
r 4.235214 1 3 cbr 500 ------- 2 1.0 5.0 25 29
h 4.235214 3 12 cbr 500 ------- 2 1.0 5.0 25 29
+ 4.238648 3 12 tcp 1040 ------- 1 0.0 4.0 2 24
- 4.238904 3 12 tcp 1040 ------- 1 0.0 4.0 2 24
d 4.238908 5 12 tcp 1040 ------- 1 0.0 4.0 2 24
+ 4.2395 3 12 cbr 500 ------- 2 1.0 5.0 21 25
+ 4.241071 1 3 cbr 500 ------- 2 1.0 5.0 27 31
- 4.241071 1 3 cbr 500 ------- 2 1.0 5.0 27 31
- 4.24332 3 12 cbr 500 ------- 2 1.0 5.0 21 25
d 4.243324 4 12 cbr 500 ------- 2 1.0 5.0 21 25
r 4.24379 12 5 cbr 500 ------- 2 1.0 5.0 17 19
r 4.244143 1 3 cbr 500 ------- 2 1.0 5.0 26 30
h 4.244143 3 12 cbr 500 ------- 2 1.0 5.0 26 30
+ 4.248429 3 12 cbr 500 ------- 2 1.0 5.0 22 26
- 4.248429 3 12 cbr 500 ------- 2 1.0 5.0 22 26
d 4.248433 4 12 cbr 500 ------- 2 1.0 5.0 22 26
+ 4.25 1 3 cbr 500 ------- 2 1.0 5.0 28 32
- 4.25 1 3 cbr 500 ------- 2 1.0 5.0 28 32
r 4.252718 12 5 cbr 500 ------- 2 1.0 5.0 18 20
r 4.253071 1 3 cbr 500 ------- 2 1.0 5.0 27 31
h 4.253071 3 12 cbr 500 ------- 2 1.0 5.0 27 31
+ 4.257357 3 12 cbr 500 ------- 2 1.0 5.0 23 27
- 4.257357 3 12 cbr 500 ------- 2 1.0 5.0 23 27
d 4.257361 4 12 cbr 500 ------- 2 1.0 5.0 23 27
+ 4.258929 1 3 cbr 500 ------- 2 1.0 5.0 29 33
- 4.258929 1 3 cbr 500 ------- 2 1.0 5.0 29 33
r 4.261647 12 5 cbr 500 ------- 2 1.0 5.0 19 21
r 4.262 1 3 cbr 500 ------- 2 1.0 5.0 28 32
h 4.262 3 12 cbr 500 ------- 2 1.0 5.0 28 32
+ 4.266286 3 12 cbr 500 ------- 2 1.0 5.0 24 28
- 4.266286 3 12 cbr 500 ------- 2 1.0 5.0 24 28
d 4.26629 4 12 cbr 500 ------- 2 1.0 5.0 24 28
+ 4.267857 1 3 cbr 500 ------- 2 1.0 5.0 30 34
- 4.267857 1 3 cbr 500 ------- 2 1.0 5.0 30 34
r 4.270575 12 5 cbr 500 ------- 2 1.0 5.0 20 22
r 4.270929 1 3 cbr 500 ------- 2 1.0 5.0 29 33
h 4.270929 3 12 cbr 500 ------- 2 1.0 5.0 29 33
r 4.274492 12 4 tcp 1040 ------- 1 0.0 4.0 1 23
h 4.274492 4 12 ack 40 ------- 1 4.0 0.0 1 35
+ 4.275214 3 12 cbr 500 ------- 2 1.0 5.0 25 29
- 4.275214 3 12 cbr 500 ------- 2 1.0 5.0 25 29
d 4.275218 4 12 cbr 500 ------- 2 1.0 5.0 25 29
+ 4.276786 1 3 cbr 500 ------- 2 1.0 5.0 31 36
- 4.276786 1 3 cbr 500 ------- 2 1.0 5.0 31 36
r 4.278908 12 4 tcp 1040 ------- 1 0.0 4.0 2 24
h 4.278908 4 12 ack 40 ------- 1 4.0 0.0 2 37
r 4.279857 1 3 cbr 500 ------- 2 1.0 5.0 30 34
h 4.279857 3 12 cbr 500 ------- 2 1.0 5.0 30 34
r 4.283324 12 5 cbr 500 ------- 2 1.0 5.0 21 25
+ 4.284143 3 12 cbr 500 ------- 2 1.0 5.0 26 30
- 4.284143 3 12 cbr 500 ------- 2 1.0 5.0 26 30
d 4.284147 4 12 cbr 500 ------- 2 1.0 5.0 26 30
+ 4.285714 1 3 cbr 500 ------- 2 1.0 5.0 32 38
- 4.285714 1 3 cbr 500 ------- 2 1.0 5.0 32 38
r 4.288433 12 5 cbr 500 ------- 2 1.0 5.0 22 26
r 4.288786 1 3 cbr 500 ------- 2 1.0 5.0 31 36
h 4.288786 3 12 cbr 500 ------- 2 1.0 5.0 31 36
+ 4.293071 3 12 cbr 500 ------- 2 1.0 5.0 27 31
- 4.293071 3 12 cbr 500 ------- 2 1.0 5.0 27 31
d 4.293075 4 12 cbr 500 ------- 2 1.0 5.0 27 31
+ 4.294643 1 3 cbr 500 ------- 2 1.0 5.0 33 39
- 4.294643 1 3 cbr 500 ------- 2 1.0 5.0 33 39
r 4.297361 12 5 cbr 500 ------- 2 1.0 5.0 23 27
r 4.297714 1 3 cbr 500 ------- 2 1.0 5.0 32 38
h 4.297714 3 12 cbr 500 ------- 2 1.0 5.0 32 38
+ 4.302 3 12 cbr 500 ------- 2 1.0 5.0 28 32
- 4.302 3 12 cbr 500 ------- 2 1.0 5.0 28 32
d 4.302004 4 12 cbr 500 ------- 2 1.0 5.0 28 32
+ 4.303571 1 3 cbr 500 ------- 2 1.0 5.0 34 40
- 4.303571 1 3 cbr 500 ------- 2 1.0 5.0 34 40
r 4.30629 12 5 cbr 500 ------- 2 1.0 5.0 24 28
r 4.306643 1 3 cbr 500 ------- 2 1.0 5.0 33 39
h 4.306643 3 12 cbr 500 ------- 2 1.0 5.0 33 39
+ 4.310929 3 12 cbr 500 ------- 2 1.0 5.0 29 33
- 4.310929 3 12 cbr 500 ------- 2 1.0 5.0 29 33
d 4.310933 4 12 cbr 500 ------- 2 1.0 5.0 29 33
+ 4.3125 1 3 cbr 500 ------- 2 1.0 5.0 35 41
- 4.3125 1 3 cbr 500 ------- 2 1.0 5.0 35 41
+ 4.314492 4 12 ack 40 ------- 1 4.0 0.0 1 35
- 4.314492 4 12 ack 40 ------- 1 4.0 0.0 1 35
d 4.314496 5 12 ack 40 ------- 1 4.0 0.0 1 35
r 4.315218 12 5 cbr 500 ------- 2 1.0 5.0 25 29
r 4.315571 1 3 cbr 500 ------- 2 1.0 5.0 34 40
h 4.315571 3 12 cbr 500 ------- 2 1.0 5.0 34 40
+ 4.318908 4 12 ack 40 ------- 1 4.0 0.0 2 37
- 4.318908 4 12 ack 40 ------- 1 4.0 0.0 2 37
d 4.318912 5 12 ack 40 ------- 1 4.0 0.0 2 37
+ 4.319857 3 12 cbr 500 ------- 2 1.0 5.0 30 34
- 4.319857 3 12 cbr 500 ------- 2 1.0 5.0 30 34
d 4.319861 4 12 cbr 500 ------- 2 1.0 5.0 30 34
+ 4.321429 1 3 cbr 500 ------- 2 1.0 5.0 36 42
- 4.321429 1 3 cbr 500 ------- 2 1.0 5.0 36 42
r 4.324147 12 5 cbr 500 ------- 2 1.0 5.0 26 30
r 4.3245 1 3 cbr 500 ------- 2 1.0 5.0 35 41
h 4.3245 3 12 cbr 500 ------- 2 1.0 5.0 35 41
+ 4.328786 3 12 cbr 500 ------- 2 1.0 5.0 31 36
- 4.328786 3 12 cbr 500 ------- 2 1.0 5.0 31 36
d 4.32879 4 12 cbr 500 ------- 2 1.0 5.0 31 36
+ 4.330357 1 3 cbr 500 ------- 2 1.0 5.0 37 43
- 4.330357 1 3 cbr 500 ------- 2 1.0 5.0 37 43
r 4.333075 12 5 cbr 500 ------- 2 1.0 5.0 27 31
r 4.333429 1 3 cbr 500 ------- 2 1.0 5.0 36 42
h 4.333429 3 12 cbr 500 ------- 2 1.0 5.0 36 42
+ 4.337714 3 12 cbr 500 ------- 2 1.0 5.0 32 38
- 4.337714 3 12 cbr 500 ------- 2 1.0 5.0 32 38
d 4.337718 4 12 cbr 500 ------- 2 1.0 5.0 32 38
+ 4.339286 1 3 cbr 500 ------- 2 1.0 5.0 38 44
- 4.339286 1 3 cbr 500 ------- 2 1.0 5.0 38 44
r 4.342004 12 5 cbr 500 ------- 2 1.0 5.0 28 32
r 4.342357 1 3 cbr 500 ------- 2 1.0 5.0 37 43
h 4.342357 3 12 cbr 500 ------- 2 1.0 5.0 37 43
+ 4.346643 3 12 cbr 500 ------- 2 1.0 5.0 33 39
- 4.346643 3 12 cbr 500 ------- 2 1.0 5.0 33 39
d 4.346647 4 12 cbr 500 ------- 2 1.0 5.0 33 39
+ 4.348214 1 3 cbr 500 ------- 2 1.0 5.0 39 45
- 4.348214 1 3 cbr 500 ------- 2 1.0 5.0 39 45
r 4.350933 12 5 cbr 500 ------- 2 1.0 5.0 29 33
r 4.351286 1 3 cbr 500 ------- 2 1.0 5.0 38 44
h 4.351286 3 12 cbr 500 ------- 2 1.0 5.0 38 44
r 4.354496 12 3 ack 40 ------- 1 4.0 0.0 1 35
+ 4.354496 3 0 ack 40 ------- 1 4.0 0.0 1 35
- 4.354496 3 0 ack 40 ------- 1 4.0 0.0 1 35
+ 4.355571 3 12 cbr 500 ------- 2 1.0 5.0 34 40
- 4.355571 3 12 cbr 500 ------- 2 1.0 5.0 34 40
d 4.355575 4 12 cbr 500 ------- 2 1.0 5.0 34 40
+ 4.357143 1 3 cbr 500 ------- 2 1.0 5.0 40 46
- 4.357143 1 3 cbr 500 ------- 2 1.0 5.0 40 46
r 4.358912 12 3 ack 40 ------- 1 4.0 0.0 2 37
+ 4.358912 3 0 ack 40 ------- 1 4.0 0.0 2 37
- 4.358912 3 0 ack 40 ------- 1 4.0 0.0 2 37
r 4.359861 12 5 cbr 500 ------- 2 1.0 5.0 30 34
r 4.360214 1 3 cbr 500 ------- 2 1.0 5.0 39 45
h 4.360214 3 12 cbr 500 ------- 2 1.0 5.0 39 45
+ 4.3645 3 12 cbr 500 ------- 2 1.0 5.0 35 41
- 4.3645 3 12 cbr 500 ------- 2 1.0 5.0 35 41
d 4.364504 4 12 cbr 500 ------- 2 1.0 5.0 35 41
r 4.364656 3 0 ack 40 ------- 1 4.0 0.0 1 35
+ 4.364656 0 3 tcp 1040 ------- 1 0.0 4.0 3 47
- 4.364656 0 3 tcp 1040 ------- 1 0.0 4.0 3 47
+ 4.364656 0 3 tcp 1040 ------- 1 0.0 4.0 4 48
+ 4.366071 1 3 cbr 500 ------- 2 1.0 5.0 41 49
- 4.366071 1 3 cbr 500 ------- 2 1.0 5.0 41 49
r 4.36879 12 5 cbr 500 ------- 2 1.0 5.0 31 36
- 4.368816 0 3 tcp 1040 ------- 1 0.0 4.0 4 48
r 4.369072 3 0 ack 40 ------- 1 4.0 0.0 2 37
+ 4.369072 0 3 tcp 1040 ------- 1 0.0 4.0 5 50
+ 4.369072 0 3 tcp 1040 ------- 1 0.0 4.0 6 51
r 4.369143 1 3 cbr 500 ------- 2 1.0 5.0 40 46
h 4.369143 3 12 cbr 500 ------- 2 1.0 5.0 40 46
- 4.372976 0 3 tcp 1040 ------- 1 0.0 4.0 5 50
+ 4.373429 3 12 cbr 500 ------- 2 1.0 5.0 36 42
- 4.373429 3 12 cbr 500 ------- 2 1.0 5.0 36 42
d 4.373433 4 12 cbr 500 ------- 2 1.0 5.0 36 42
+ 4.375 1 3 cbr 500 ------- 2 1.0 5.0 42 52
- 4.375 1 3 cbr 500 ------- 2 1.0 5.0 42 52
- 4.377136 0 3 tcp 1040 ------- 1 0.0 4.0 6 51
r 4.377718 12 5 cbr 500 ------- 2 1.0 5.0 32 38
r 4.378071 1 3 cbr 500 ------- 2 1.0 5.0 41 49
h 4.378071 3 12 cbr 500 ------- 2 1.0 5.0 41 49
r 4.378816 0 3 tcp 1040 ------- 1 0.0 4.0 3 47
h 4.378816 3 12 tcp 1040 ------- 1 0.0 4.0 3 47
+ 4.382357 3 12 cbr 500 ------- 2 1.0 5.0 37 43
- 4.382357 3 12 cbr 500 ------- 2 1.0 5.0 37 43
d 4.382361 4 12 cbr 500 ------- 2 1.0 5.0 37 43
r 4.382976 0 3 tcp 1040 ------- 1 0.0 4.0 4 48
h 4.382976 3 12 tcp 1040 ------- 1 0.0 4.0 4 48
+ 4.383929 1 3 cbr 500 ------- 2 1.0 5.0 43 53
- 4.383929 1 3 cbr 500 ------- 2 1.0 5.0 43 53
r 4.386647 12 5 cbr 500 ------- 2 1.0 5.0 33 39
r 4.387 1 3 cbr 500 ------- 2 1.0 5.0 42 52
h 4.387 3 12 cbr 500 ------- 2 1.0 5.0 42 52
r 4.387136 0 3 tcp 1040 ------- 1 0.0 4.0 5 50
h 4.387136 3 12 tcp 1040 ------- 1 0.0 4.0 5 50
+ 4.391286 3 12 cbr 500 ------- 2 1.0 5.0 38 44
- 4.391286 3 12 cbr 500 ------- 2 1.0 5.0 38 44
d 4.39129 4 12 cbr 500 ------- 2 1.0 5.0 38 44
r 4.391296 0 3 tcp 1040 ------- 1 0.0 4.0 6 51
h 4.391296 3 12 tcp 1040 ------- 1 0.0 4.0 6 51
+ 4.392857 1 3 cbr 500 ------- 2 1.0 5.0 44 54
- 4.392857 1 3 cbr 500 ------- 2 1.0 5.0 44 54
r 4.395575 12 5 cbr 500 ------- 2 1.0 5.0 34 40
r 4.395929 1 3 cbr 500 ------- 2 1.0 5.0 43 53
h 4.395929 3 12 cbr 500 ------- 2 1.0 5.0 43 53
+ 4.400214 3 12 cbr 500 ------- 2 1.0 5.0 39 45
- 4.400214 3 12 cbr 500 ------- 2 1.0 5.0 39 45
d 4.400218 4 12 cbr 500 ------- 2 1.0 5.0 39 45
+ 4.401786 1 3 cbr 500 ------- 2 1.0 5.0 45 55
- 4.401786 1 3 cbr 500 ------- 2 1.0 5.0 45 55
r 4.404504 12 5 cbr 500 ------- 2 1.0 5.0 35 41
r 4.404857 1 3 cbr 500 ------- 2 1.0 5.0 44 54
h 4.404857 3 12 cbr 500 ------- 2 1.0 5.0 44 54
+ 4.409143 3 12 cbr 500 ------- 2 1.0 5.0 40 46
- 4.409143 3 12 cbr 500 ------- 2 1.0 5.0 40 46
d 4.409147 4 12 cbr 500 ------- 2 1.0 5.0 40 46
+ 4.410714 1 3 cbr 500 ------- 2 1.0 5.0 46 56
- 4.410714 1 3 cbr 500 ------- 2 1.0 5.0 46 56
r 4.413433 12 5 cbr 500 ------- 2 1.0 5.0 36 42
r 4.413786 1 3 cbr 500 ------- 2 1.0 5.0 45 55
h 4.413786 3 12 cbr 500 ------- 2 1.0 5.0 45 55
+ 4.418071 3 12 cbr 500 ------- 2 1.0 5.0 41 49
- 4.418071 3 12 cbr 500 ------- 2 1.0 5.0 41 49
d 4.418075 4 12 cbr 500 ------- 2 1.0 5.0 41 49
+ 4.418816 3 12 tcp 1040 ------- 1 0.0 4.0 3 47
+ 4.419643 1 3 cbr 500 ------- 2 1.0 5.0 47 57
- 4.419643 1 3 cbr 500 ------- 2 1.0 5.0 47 57
- 4.420327 3 12 tcp 1040 ------- 1 0.0 4.0 3 47
d 4.420331 5 12 tcp 1040 ------- 1 0.0 4.0 3 47
r 4.422361 12 5 cbr 500 ------- 2 1.0 5.0 37 43
r 4.422714 1 3 cbr 500 ------- 2 1.0 5.0 46 56
h 4.422714 3 12 cbr 500 ------- 2 1.0 5.0 46 56
+ 4.422976 3 12 tcp 1040 ------- 1 0.0 4.0 4 48
- 4.424743 3 12 tcp 1040 ------- 1 0.0 4.0 4 48
d 4.424747 5 12 tcp 1040 ------- 1 0.0 4.0 4 48
+ 4.427 3 12 cbr 500 ------- 2 1.0 5.0 42 52
+ 4.427136 3 12 tcp 1040 ------- 1 0.0 4.0 5 50
+ 4.428571 1 3 cbr 500 ------- 2 1.0 5.0 48 58
- 4.428571 1 3 cbr 500 ------- 2 1.0 5.0 48 58
- 4.429159 3 12 cbr 500 ------- 2 1.0 5.0 42 52
d 4.429163 4 12 cbr 500 ------- 2 1.0 5.0 42 52
r 4.43129 12 5 cbr 500 ------- 2 1.0 5.0 38 44
+ 4.431296 3 12 tcp 1040 ------- 1 0.0 4.0 6 51
- 4.431415 3 12 tcp 1040 ------- 1 0.0 4.0 5 50
d 4.431419 5 12 tcp 1040 ------- 1 0.0 4.0 5 50
r 4.431643 1 3 cbr 500 ------- 2 1.0 5.0 47 57
h 4.431643 3 12 cbr 500 ------- 2 1.0 5.0 47 57
- 4.435831 3 12 tcp 1040 ------- 1 0.0 4.0 6 51
d 4.435835 5 12 tcp 1040 ------- 1 0.0 4.0 6 51
+ 4.435929 3 12 cbr 500 ------- 2 1.0 5.0 43 53
+ 4.4375 1 3 cbr 500 ------- 2 1.0 5.0 49 59
- 4.4375 1 3 cbr 500 ------- 2 1.0 5.0 49 59
r 4.440218 12 5 cbr 500 ------- 2 1.0 5.0 39 45
- 4.440247 3 12 cbr 500 ------- 2 1.0 5.0 43 53
d 4.440251 4 12 cbr 500 ------- 2 1.0 5.0 43 53
r 4.440571 1 3 cbr 500 ------- 2 1.0 5.0 48 58
h 4.440571 3 12 cbr 500 ------- 2 1.0 5.0 48 58
+ 4.444857 3 12 cbr 500 ------- 2 1.0 5.0 44 54
- 4.444857 3 12 cbr 500 ------- 2 1.0 5.0 44 54
d 4.444861 4 12 cbr 500 ------- 2 1.0 5.0 44 54
+ 4.446429 1 3 cbr 500 ------- 2 1.0 5.0 50 60
- 4.446429 1 3 cbr 500 ------- 2 1.0 5.0 50 60
r 4.449147 12 5 cbr 500 ------- 2 1.0 5.0 40 46
r 4.4495 1 3 cbr 500 ------- 2 1.0 5.0 49 59
h 4.4495 3 12 cbr 500 ------- 2 1.0 5.0 49 59
+ 4.453786 3 12 cbr 500 ------- 2 1.0 5.0 45 55
- 4.453786 3 12 cbr 500 ------- 2 1.0 5.0 45 55
d 4.45379 4 12 cbr 500 ------- 2 1.0 5.0 45 55
+ 4.455357 1 3 cbr 500 ------- 2 1.0 5.0 51 61
- 4.455357 1 3 cbr 500 ------- 2 1.0 5.0 51 61
r 4.458075 12 5 cbr 500 ------- 2 1.0 5.0 41 49
r 4.458429 1 3 cbr 500 ------- 2 1.0 5.0 50 60
h 4.458429 3 12 cbr 500 ------- 2 1.0 5.0 50 60
r 4.460331 12 4 tcp 1040 ------- 1 0.0 4.0 3 47
h 4.460331 4 12 ack 40 ------- 1 4.0 0.0 3 62
+ 4.462714 3 12 cbr 500 ------- 2 1.0 5.0 46 56
- 4.462714 3 12 cbr 500 ------- 2 1.0 5.0 46 56
d 4.462718 4 12 cbr 500 ------- 2 1.0 5.0 46 56
+ 4.464286 1 3 cbr 500 ------- 2 1.0 5.0 52 63
- 4.464286 1 3 cbr 500 ------- 2 1.0 5.0 52 63
r 4.464747 12 4 tcp 1040 ------- 1 0.0 4.0 4 48
h 4.464747 4 12 ack 40 ------- 1 4.0 0.0 4 64
r 4.467357 1 3 cbr 500 ------- 2 1.0 5.0 51 61
h 4.467357 3 12 cbr 500 ------- 2 1.0 5.0 51 61
r 4.469163 12 5 cbr 500 ------- 2 1.0 5.0 42 52
r 4.471419 12 4 tcp 1040 ------- 1 0.0 4.0 5 50
h 4.471419 4 12 ack 40 ------- 1 4.0 0.0 5 65
+ 4.471643 3 12 cbr 500 ------- 2 1.0 5.0 47 57
- 4.471643 3 12 cbr 500 ------- 2 1.0 5.0 47 57
d 4.471647 4 12 cbr 500 ------- 2 1.0 5.0 47 57
+ 4.473214 1 3 cbr 500 ------- 2 1.0 5.0 53 66
- 4.473214 1 3 cbr 500 ------- 2 1.0 5.0 53 66
r 4.475835 12 4 tcp 1040 ------- 1 0.0 4.0 6 51
h 4.475835 4 12 ack 40 ------- 1 4.0 0.0 6 67
r 4.476286 1 3 cbr 500 ------- 2 1.0 5.0 52 63
h 4.476286 3 12 cbr 500 ------- 2 1.0 5.0 52 63
r 4.480251 12 5 cbr 500 ------- 2 1.0 5.0 43 53
+ 4.480571 3 12 cbr 500 ------- 2 1.0 5.0 48 58
- 4.480571 3 12 cbr 500 ------- 2 1.0 5.0 48 58
d 4.480575 4 12 cbr 500 ------- 2 1.0 5.0 48 58
+ 4.482143 1 3 cbr 500 ------- 2 1.0 5.0 54 68
- 4.482143 1 3 cbr 500 ------- 2 1.0 5.0 54 68
r 4.484861 12 5 cbr 500 ------- 2 1.0 5.0 44 54
r 4.485214 1 3 cbr 500 ------- 2 1.0 5.0 53 66
h 4.485214 3 12 cbr 500 ------- 2 1.0 5.0 53 66
+ 4.4895 3 12 cbr 500 ------- 2 1.0 5.0 49 59
- 4.4895 3 12 cbr 500 ------- 2 1.0 5.0 49 59
d 4.489504 4 12 cbr 500 ------- 2 1.0 5.0 49 59
+ 4.491071 1 3 cbr 500 ------- 2 1.0 5.0 55 69
- 4.491071 1 3 cbr 500 ------- 2 1.0 5.0 55 69
r 4.49379 12 5 cbr 500 ------- 2 1.0 5.0 45 55
r 4.494143 1 3 cbr 500 ------- 2 1.0 5.0 54 68
h 4.494143 3 12 cbr 500 ------- 2 1.0 5.0 54 68
+ 4.498429 3 12 cbr 500 ------- 2 1.0 5.0 50 60
- 4.498429 3 12 cbr 500 ------- 2 1.0 5.0 50 60
d 4.498433 4 12 cbr 500 ------- 2 1.0 5.0 50 60
+ 4.5 1 3 cbr 500 ------- 2 1.0 5.0 56 70
- 4.5 1 3 cbr 500 ------- 2 1.0 5.0 56 70
+ 4.500331 4 12 ack 40 ------- 1 4.0 0.0 3 62
- 4.500331 4 12 ack 40 ------- 1 4.0 0.0 3 62
d 4.500335 5 12 ack 40 ------- 1 4.0 0.0 3 62
r 4.502718 12 5 cbr 500 ------- 2 1.0 5.0 46 56
r 4.503071 1 3 cbr 500 ------- 2 1.0 5.0 55 69
h 4.503071 3 12 cbr 500 ------- 2 1.0 5.0 55 69
+ 4.504747 4 12 ack 40 ------- 1 4.0 0.0 4 64
- 4.504747 4 12 ack 40 ------- 1 4.0 0.0 4 64
d 4.504751 5 12 ack 40 ------- 1 4.0 0.0 4 64
+ 4.507357 3 12 cbr 500 ------- 2 1.0 5.0 51 61
- 4.507357 3 12 cbr 500 ------- 2 1.0 5.0 51 61
d 4.507361 4 12 cbr 500 ------- 2 1.0 5.0 51 61
+ 4.508929 1 3 cbr 500 ------- 2 1.0 5.0 57 71
- 4.508929 1 3 cbr 500 ------- 2 1.0 5.0 57 71
+ 4.511419 4 12 ack 40 ------- 1 4.0 0.0 5 65
- 4.511419 4 12 ack 40 ------- 1 4.0 0.0 5 65
d 4.511423 5 12 ack 40 ------- 1 4.0 0.0 5 65
r 4.511647 12 5 cbr 500 ------- 2 1.0 5.0 47 57
r 4.512 1 3 cbr 500 ------- 2 1.0 5.0 56 70
h 4.512 3 12 cbr 500 ------- 2 1.0 5.0 56 70
+ 4.515835 4 12 ack 40 ------- 1 4.0 0.0 6 67
- 4.515835 4 12 ack 40 ------- 1 4.0 0.0 6 67
d 4.515839 5 12 ack 40 ------- 1 4.0 0.0 6 67
+ 4.516286 3 12 cbr 500 ------- 2 1.0 5.0 52 63
- 4.516286 3 12 cbr 500 ------- 2 1.0 5.0 52 63
d 4.51629 4 12 cbr 500 ------- 2 1.0 5.0 52 63
+ 4.517857 1 3 cbr 500 ------- 2 1.0 5.0 58 72
- 4.517857 1 3 cbr 500 ------- 2 1.0 5.0 58 72
r 4.520575 12 5 cbr 500 ------- 2 1.0 5.0 48 58
r 4.520929 1 3 cbr 500 ------- 2 1.0 5.0 57 71
h 4.520929 3 12 cbr 500 ------- 2 1.0 5.0 57 71
+ 4.525214 3 12 cbr 500 ------- 2 1.0 5.0 53 66
- 4.525214 3 12 cbr 500 ------- 2 1.0 5.0 53 66
d 4.525218 4 12 cbr 500 ------- 2 1.0 5.0 53 66
+ 4.526786 1 3 cbr 500 ------- 2 1.0 5.0 59 73
- 4.526786 1 3 cbr 500 ------- 2 1.0 5.0 59 73
r 4.529504 12 5 cbr 500 ------- 2 1.0 5.0 49 59
r 4.529857 1 3 cbr 500 ------- 2 1.0 5.0 58 72
h 4.529857 3 12 cbr 500 ------- 2 1.0 5.0 58 72
+ 4.534143 3 12 cbr 500 ------- 2 1.0 5.0 54 68
- 4.534143 3 12 cbr 500 ------- 2 1.0 5.0 54 68
d 4.534147 4 12 cbr 500 ------- 2 1.0 5.0 54 68
+ 4.535714 1 3 cbr 500 ------- 2 1.0 5.0 60 74
- 4.535714 1 3 cbr 500 ------- 2 1.0 5.0 60 74
r 4.538433 12 5 cbr 500 ------- 2 1.0 5.0 50 60
r 4.538786 1 3 cbr 500 ------- 2 1.0 5.0 59 73
h 4.538786 3 12 cbr 500 ------- 2 1.0 5.0 59 73
r 4.540335 12 3 ack 40 ------- 1 4.0 0.0 3 62
+ 4.540335 3 0 ack 40 ------- 1 4.0 0.0 3 62
- 4.540335 3 0 ack 40 ------- 1 4.0 0.0 3 62
+ 4.543071 3 12 cbr 500 ------- 2 1.0 5.0 55 69
- 4.543071 3 12 cbr 500 ------- 2 1.0 5.0 55 69
d 4.543075 4 12 cbr 500 ------- 2 1.0 5.0 55 69
+ 4.544643 1 3 cbr 500 ------- 2 1.0 5.0 61 75
- 4.544643 1 3 cbr 500 ------- 2 1.0 5.0 61 75
r 4.544751 12 3 ack 40 ------- 1 4.0 0.0 4 64
+ 4.544751 3 0 ack 40 ------- 1 4.0 0.0 4 64
- 4.544751 3 0 ack 40 ------- 1 4.0 0.0 4 64
r 4.547361 12 5 cbr 500 ------- 2 1.0 5.0 51 61
r 4.547714 1 3 cbr 500 ------- 2 1.0 5.0 60 74
h 4.547714 3 12 cbr 500 ------- 2 1.0 5.0 60 74
r 4.550495 3 0 ack 40 ------- 1 4.0 0.0 3 62
+ 4.550495 0 3 tcp 1040 ------- 1 0.0 4.0 7 76
- 4.550495 0 3 tcp 1040 ------- 1 0.0 4.0 7 76
+ 4.550495 0 3 tcp 1040 ------- 1 0.0 4.0 8 77
r 4.551423 12 3 ack 40 ------- 1 4.0 0.0 5 65
+ 4.551423 3 0 ack 40 ------- 1 4.0 0.0 5 65
- 4.551423 3 0 ack 40 ------- 1 4.0 0.0 5 65
+ 4.552 3 12 cbr 500 ------- 2 1.0 5.0 56 70
- 4.552 3 12 cbr 500 ------- 2 1.0 5.0 56 70
d 4.552004 4 12 cbr 500 ------- 2 1.0 5.0 56 70
+ 4.553571 1 3 cbr 500 ------- 2 1.0 5.0 62 78
- 4.553571 1 3 cbr 500 ------- 2 1.0 5.0 62 78
- 4.554655 0 3 tcp 1040 ------- 1 0.0 4.0 8 77
r 4.554911 3 0 ack 40 ------- 1 4.0 0.0 4 64
+ 4.554911 0 3 tcp 1040 ------- 1 0.0 4.0 9 79
+ 4.554911 0 3 tcp 1040 ------- 1 0.0 4.0 10 80
r 4.555839 12 3 ack 40 ------- 1 4.0 0.0 6 67
+ 4.555839 3 0 ack 40 ------- 1 4.0 0.0 6 67
- 4.555839 3 0 ack 40 ------- 1 4.0 0.0 6 67
r 4.55629 12 5 cbr 500 ------- 2 1.0 5.0 52 63
r 4.556643 1 3 cbr 500 ------- 2 1.0 5.0 61 75
h 4.556643 3 12 cbr 500 ------- 2 1.0 5.0 61 75
- 4.558815 0 3 tcp 1040 ------- 1 0.0 4.0 9 79
+ 4.560929 3 12 cbr 500 ------- 2 1.0 5.0 57 71
- 4.560929 3 12 cbr 500 ------- 2 1.0 5.0 57 71
d 4.560933 4 12 cbr 500 ------- 2 1.0 5.0 57 71
r 4.561583 3 0 ack 40 ------- 1 4.0 0.0 5 65
+ 4.561583 0 3 tcp 1040 ------- 1 0.0 4.0 11 81
+ 4.561583 0 3 tcp 1040 ------- 1 0.0 4.0 12 82
+ 4.5625 1 3 cbr 500 ------- 2 1.0 5.0 63 83
- 4.5625 1 3 cbr 500 ------- 2 1.0 5.0 63 83
- 4.562975 0 3 tcp 1040 ------- 1 0.0 4.0 10 80
r 4.564655 0 3 tcp 1040 ------- 1 0.0 4.0 7 76
h 4.564655 3 12 tcp 1040 ------- 1 0.0 4.0 7 76
r 4.565218 12 5 cbr 500 ------- 2 1.0 5.0 53 66
r 4.565571 1 3 cbr 500 ------- 2 1.0 5.0 62 78
h 4.565571 3 12 cbr 500 ------- 2 1.0 5.0 62 78
r 4.565999 3 0 ack 40 ------- 1 4.0 0.0 6 67
+ 4.565999 0 3 tcp 1040 ------- 1 0.0 4.0 13 84
+ 4.565999 0 3 tcp 1040 ------- 1 0.0 4.0 14 85
- 4.567135 0 3 tcp 1040 ------- 1 0.0 4.0 11 81
r 4.568815 0 3 tcp 1040 ------- 1 0.0 4.0 8 77
h 4.568815 3 12 tcp 1040 ------- 1 0.0 4.0 8 77
+ 4.569857 3 12 cbr 500 ------- 2 1.0 5.0 58 72
- 4.569857 3 12 cbr 500 ------- 2 1.0 5.0 58 72
d 4.569861 4 12 cbr 500 ------- 2 1.0 5.0 58 72
- 4.571295 0 3 tcp 1040 ------- 1 0.0 4.0 12 82
+ 4.571429 1 3 cbr 500 ------- 2 1.0 5.0 64 86
- 4.571429 1 3 cbr 500 ------- 2 1.0 5.0 64 86
r 4.572975 0 3 tcp 1040 ------- 1 0.0 4.0 9 79
h 4.572975 3 12 tcp 1040 ------- 1 0.0 4.0 9 79
r 4.574147 12 5 cbr 500 ------- 2 1.0 5.0 54 68
r 4.5745 1 3 cbr 500 ------- 2 1.0 5.0 63 83
h 4.5745 3 12 cbr 500 ------- 2 1.0 5.0 63 83
- 4.575455 0 3 tcp 1040 ------- 1 0.0 4.0 13 84
r 4.577135 0 3 tcp 1040 ------- 1 0.0 4.0 10 80
h 4.577135 3 12 tcp 1040 ------- 1 0.0 4.0 10 80
+ 4.578786 3 12 cbr 500 ------- 2 1.0 5.0 59 73
- 4.578786 3 12 cbr 500 ------- 2 1.0 5.0 59 73
d 4.57879 4 12 cbr 500 ------- 2 1.0 5.0 59 73
- 4.579615 0 3 tcp 1040 ------- 1 0.0 4.0 14 85
+ 4.580357 1 3 cbr 500 ------- 2 1.0 5.0 65 87
- 4.580357 1 3 cbr 500 ------- 2 1.0 5.0 65 87
r 4.581295 0 3 tcp 1040 ------- 1 0.0 4.0 11 81
h 4.581295 3 12 tcp 1040 ------- 1 0.0 4.0 11 81
r 4.583075 12 5 cbr 500 ------- 2 1.0 5.0 55 69
r 4.583429 1 3 cbr 500 ------- 2 1.0 5.0 64 86
h 4.583429 3 12 cbr 500 ------- 2 1.0 5.0 64 86
r 4.585455 0 3 tcp 1040 ------- 1 0.0 4.0 12 82
h 4.585455 3 12 tcp 1040 ------- 1 0.0 4.0 12 82
+ 4.587714 3 12 cbr 500 ------- 2 1.0 5.0 60 74
- 4.587714 3 12 cbr 500 ------- 2 1.0 5.0 60 74